ANIMSTEPS    9
CRYSTAL
PRIMVEC
   -2.735516238    0.000000000    2.735516238
    0.000000000    2.735516238    2.735516238
   -2.735516238    2.735516238    0.000000000
PRIMCOORD    1
      3   1
   Ce     0.00000   0.00000   0.00000   0.00676  -0.03566   0.04490
   O     -1.36776   1.36776   1.36776   0.00676  -0.03566   0.04490
   O     -4.10327   4.10327   4.10327   0.00676  -0.03566   0.04490
PRIMCOORD    2
      3   1
   Ce     0.00000   0.00000   0.00000   0.02869  -0.03704  -0.03374
   O     -1.36776   1.36776   1.36776   0.02869  -0.03704  -0.03374
   O     -4.10327   4.10327   4.10327   0.02869  -0.03704  -0.03374
PRIMCOORD    3
      3   1
   Ce     0.00000   0.00000   0.00000   0.04965   0.02626   0.01338
   O     -1.36776   1.36776   1.36776   0.04965   0.02626   0.01338
   O     -4.10327   4.10327   4.10327   0.04965   0.02626   0.01338
PRIMCOORD    4
      3   1
   Ce     0.00000   0.00000   0.00000  -0.00969   0.01266   0.00012
   O     -1.36776   1.36776   1.36776   0.04245  -0.05542  -0.00051
   O     -4.10327   4.10327   4.10327   0.04245  -0.05542  -0.00051
PRIMCOORD    5
      3   1
   Ce     0.00000   0.00000   0.00000   0.00086   0.00051   0.01591
   O     -1.36776   1.36776   1.36776  -0.00375  -0.00223  -0.06967
   O     -4.10327   4.10327   4.10327  -0.00375  -0.00223  -0.06967
PRIMCOORD    6
      3   1
   Ce     0.00000   0.00000   0.00000  -0.01263  -0.00968   0.00099
   O     -1.36776   1.36776   1.36776   0.05529   0.04239  -0.00434
   O     -4.10327   4.10327   4.10327   0.05529   0.04239  -0.00434
PRIMCOORD    7
      3   1
   Ce     0.00000   0.00000   0.00000   0.00000  -0.00000   0.00000
   O     -1.36776   1.36776   1.36776  -0.01033   0.03741   0.05911
   O     -4.10327   4.10327   4.10327   0.01033  -0.03741  -0.05911
PRIMCOORD    8
      3   1
   Ce     0.00000   0.00000   0.00000  -0.00000   0.00000  -0.00000
   O     -1.36776   1.36776   1.36776  -0.02045   0.05553  -0.03871
   O     -4.10327   4.10327   4.10327   0.02045  -0.05553   0.03871
PRIMCOORD    9
      3   1
   Ce     0.00000   0.00000   0.00000  -0.00000  -0.00000  -0.00000
   O     -1.36776   1.36776   1.36776  -0.06690  -0.02275   0.00271
   O     -4.10327   4.10327   4.10327   0.06690   0.02275  -0.00271
