[Molden Format]
[FREQ]
    0.00
    0.00
    0.00
  256.57
  256.57
  256.57
  416.42
  416.42
  416.42
[FR-COORD]
   Ce          0.00000        0.00000        0.00000
   O          -2.58469        2.58469        2.58469
   O          -7.75406        7.75406        7.75406
[FR-NORM-COORD]
 vibration     1
   0.06761  -0.35662   0.44899
   0.06761  -0.35662   0.44899
   0.06761  -0.35662   0.44899
 vibration     2
   0.28688  -0.37040  -0.33740
   0.28688  -0.37040  -0.33740
   0.28688  -0.37040  -0.33740
 vibration     3
   0.49645   0.26260   0.13382
   0.49645   0.26260   0.13382
   0.49645   0.26260   0.13382
 vibration     4
  -0.09694   0.12655   0.00116
   0.42448  -0.55415  -0.00509
   0.42448  -0.55415  -0.00509
 vibration     5
   0.00857   0.00510   0.15911
  -0.03752  -0.02234  -0.69670
  -0.03752  -0.02234  -0.69670
 vibration     6
  -0.12627  -0.09681   0.00991
   0.55290   0.42392  -0.04337
   0.55290   0.42392  -0.04337
 vibration     7
   0.00000  -0.00000   0.00000
  -0.10326   0.37406   0.59112
   0.10326  -0.37406  -0.59112
 vibration     8
  -0.00000   0.00000  -0.00000
  -0.20448   0.55528  -0.38710
   0.20448  -0.55528   0.38710
 vibration     9
  -0.00000  -0.00000  -0.00000
  -0.66897  -0.22747   0.02708
   0.66897   0.22747  -0.02708
