
     Program PHONON v.7.2 starts on 19Oct2023 at 18:32: 2 

     This program is part of the open-source Quantum ESPRESSO suite
     for quantum simulation of materials; please cite
         "P. Giannozzi et al., J. Phys.:Condens. Matter 21 395502 (2009);
         "P. Giannozzi et al., J. Phys.:Condens. Matter 29 465901 (2017);
         "P. Giannozzi et al., J. Chem. Phys. 152 154105 (2020);
          URL http://www.quantum-espresso.org", 
     in publications or presentations arising from this work. More details at
     http://www.quantum-espresso.org/quote

     Parallel version (MPI), running on    40 processors

     MPI processes distributed on     1 nodes
     185013 MiB available memory on the printing compute node when the environment starts
 
     Waiting for input...
     Reading input from standard input
      Title line not specified: using 'default'.

     Reading xml data from directory:

     ./CeO.save/
 
     K-points division:     npool     =       4
     R & G space division:  proc/nbgrp/npool/nimage =      10
     Subspace diagonalization in iterative solution of the eigenvalue problem:
     a serial algorithm will be used

     file Ce.paw.z_12.atompaw.wentzcovitch.v1.2.upf: wavefunction(s)  6S 0P 5D 0D 4F 0F renormalized
     file O.pbe-n-kjpaw_psl.0.1.UPF: wavefunction(s)  2P renormalized

     IMPORTANT: XC functional enforced from input :
     Exchange-correlation= PBE
                           (   1   4   3   4   0   0   0)
     Any further DFT definition will be discarded
     Please, verify this is what you really want

 
     Parallelization info
     --------------------
     sticks:   dense  smooth     PW     G-vecs:    dense   smooth      PW
     Min         292     116     34                10539     2656     427
     Max         293     120     35                10541     2657     430
     Sum        2929    1165    349               105395    26565    4285
 
     Using Slab Decomposition
 
     Reading collected, re-writing distributed wavefunctions in ./


     Dynamical matrices for ( 6, 6, 6)  uniform grid of q-points
     (  16 q-points):
       N         xq(1)         xq(2)         xq(3) 
       1   0.000000000   0.000000000   0.000000000
       2  -0.166666667   0.166666667  -0.166666667
       3  -0.333333333   0.333333333  -0.333333333
       4   0.500000000  -0.500000000   0.500000000
       5   0.000000000   0.333333333   0.000000000
       6  -0.166666667   0.500000000  -0.166666667
       7   0.666666667  -0.333333333   0.666666667
       8   0.500000000  -0.166666667   0.500000000
       9   0.333333333   0.000000000   0.333333333
      10   0.000000000   0.666666667   0.000000000
      11   0.833333333  -0.166666667   0.833333333
      12   0.666666667  -0.000000000   0.666666667
      13   0.000000000  -1.000000000   0.000000000
      14   0.666666667  -0.333333333   1.000000000
      15   0.500000000  -0.166666667   0.833333333
      16  -0.333333333  -1.000000000   0.000000000

     Saving dvscf to file. Distribute only q points, not irreducible represetations.

     Calculation of q =    0.0000000   0.0000000   0.0000000

     default                                                                    

     bravais-lattice index     =            2
     lattice parameter (alat)  =      10.3388  a.u.
     unit-cell volume          =     276.2768 (a.u.)^3
     number of atoms/cell      =            3
     number of atomic types    =            2
     kinetic-energy cut-off    =      80.0000  Ry
     charge density cut-off    =     800.0000  Ry
     convergence threshold     =      1.0E-18
     beta                      =       0.7000
     number of iterations used =            4
     Exchange-correlation= PBE
                           (   1   4   3   4   0   0   0)


     celldm(1)=   10.33875  celldm(2)=    0.00000  celldm(3)=    0.00000
     celldm(4)=    0.00000  celldm(5)=    0.00000  celldm(6)=    0.00000

     crystal axes: (cart. coord. in units of alat)
               a(1) = ( -0.5000  0.0000  0.5000 )  
               a(2) = (  0.0000  0.5000  0.5000 )  
               a(3) = ( -0.5000  0.5000  0.0000 )  

     reciprocal axes: (cart. coord. in units 2 pi/alat)
               b(1) = ( -1.0000 -1.0000  1.0000 )  
               b(2) = (  1.0000  1.0000  1.0000 )  
               b(3) = ( -1.0000  1.0000 -1.0000 )  


     Atoms inside the unit cell: 

     Cartesian axes

     site n.  atom      mass           positions (alat units)
        1     Ce 140.1160   tau(    1) = (    0.00000    0.00000    0.00000  )
        2     O   15.9994   tau(    2) = (   -0.25000    0.25000    0.25000  )
        3     O   15.9994   tau(    3) = (   -0.75000    0.75000    0.75000  )

     Computing dynamical matrix for 
                    q = (   0.0000000   0.0000000   0.0000000 )
 
     49 Sym.Ops. (with q -> -q+G )


     G cutoff = 2166.0405  (  10540 G-vectors)     FFT grid: ( 72, 72, 72)
     G cutoff =  866.4162  (   2657 G-vectors)  smooth grid: ( 45, 45, 45)
     number of k points=    72

     PseudoPot. # 1 for Ce read from file:
     ./Ce.paw.z_12.atompaw.wentzcovitch.v1.2.upf
     MD5 check sum: 2241420ff980c77e0c917a2dc8a7e08e
     Pseudo is Projector augmented-wave + core cor, Zval = 12.0
     Generated using ATOMPAW code
     Shape of augmentation charge: BESSEL
     Using radial grid of 1102 points,  8 beta functions with: 
                l(1) =   0
                l(2) =   0
                l(3) =   1
                l(4) =   1
                l(5) =   2
                l(6) =   2
                l(7) =   3
                l(8) =   3
     Q(r) pseudized with 0 coefficients 


     PseudoPot. # 2 for O  read from file:
     ./O.pbe-n-kjpaw_psl.0.1.UPF
     MD5 check sum: 0234752ac141de4415c5fc33072bef88
     Pseudo is Projector augmented-wave + core cor, Zval =  6.0
     Generated using "atomic" code by A. Dal Corso  v.5.0.99 svn rev. 10869
     Shape of augmentation charge: BESSEL
     Using radial grid of 1095 points,  4 beta functions with: 
                l(1) =   0
                l(2) =   0
                l(3) =   1
                l(4) =   1
     Q(r) pseudized with 0 coefficients 


     Mode symmetry, O_h (m-3m)  point group:


     Electric field:
     Dielectric constant
     Born effective charges in two ways 


     Atomic displacements:
     There are    3 irreducible representations

     Representation     1      3 modes -  To be done

     Representation     2      3 modes -  To be done

     Representation     3      3 modes -  To be done



     Alpha used in Ewald sum =   2.8000
     PHONON       :      4.44s CPU     12.35s WALL


     Electric Fields Calculation

      iter #   1 total cpu time :    24.6 secs   av.it.:  10.6
      thresh= 1.000E-02 alpha_mix =  0.700 |ddv_scf|^2 =  2.334E-09

      iter #   2 total cpu time :    32.2 secs   av.it.:  19.7
      thresh= 4.832E-06 alpha_mix =  0.700 |ddv_scf|^2 =  1.012E-10

      iter #   3 total cpu time :    39.9 secs   av.it.:  19.2
      thresh= 1.006E-06 alpha_mix =  0.700 |ddv_scf|^2 =  1.021E-11

      iter #   4 total cpu time :    47.6 secs   av.it.:  19.1
      thresh= 3.195E-07 alpha_mix =  0.700 |ddv_scf|^2 =  5.625E-13

      iter #   5 total cpu time :    55.7 secs   av.it.:  19.3
      thresh= 7.500E-08 alpha_mix =  0.700 |ddv_scf|^2 =  1.117E-14

      iter #   6 total cpu time :    63.6 secs   av.it.:  19.9
      thresh= 1.057E-08 alpha_mix =  0.700 |ddv_scf|^2 =  1.445E-16

      iter #   7 total cpu time :    71.7 secs   av.it.:  18.9
      thresh= 1.202E-09 alpha_mix =  0.700 |ddv_scf|^2 =  1.325E-17

      iter #   8 total cpu time :    79.4 secs   av.it.:  19.1
      thresh= 3.641E-10 alpha_mix =  0.700 |ddv_scf|^2 =  9.274E-20

     End of electric fields calculation

          Dielectric constant in cartesian axis 

          (       7.978103025       0.000000000      -0.000000000 )
          (       0.000000000       7.978103025       0.000000000 )
          (      -0.000000000      -0.000000000       7.978103025 )

          Effective charges (d Force / dE) in cartesian axis without acoustic sum rule applied (asr)

           atom      1   Ce Mean Z*:        5.74722
      Ex  (        5.74722        0.00000        0.00000 )
      Ey  (        0.00000        5.74722        0.00000 )
      Ez  (       -0.00000       -0.00000        5.74722 )
           atom      2   O  Mean Z*:       -2.87278
      Ex  (       -2.87278       -0.00000       -0.00000 )
      Ey  (       -0.00000       -2.87278        0.00000 )
      Ez  (       -0.00000        0.00000       -2.87278 )
           atom      3   O  Mean Z*:       -2.87278
      Ex  (       -2.87278       -0.00000       -0.00000 )
      Ey  (       -0.00000       -2.87278        0.00000 )
      Ez  (       -0.00000        0.00000       -2.87278 )

          Effective charges Sum: Mean:        0.00166
              0.00166       -0.00000       -0.00000
             -0.00000        0.00166        0.00000
             -0.00000        0.00000        0.00166

          Effective charges (d Force / dE) in cartesian axis with asr applied: 
           atom      1   Ce Mean Z*:        5.74666
      E*x (        5.74666        0.00000        0.00000 )
      E*y (        0.00000        5.74666       -0.00000 )
      E*z (        0.00000       -0.00000        5.74666 )
           atom      2   O  Mean Z*:       -2.87333
      E*x (       -2.87333       -0.00000       -0.00000 )
      E*y (       -0.00000       -2.87333        0.00000 )
      E*z (       -0.00000        0.00000       -2.87333 )
           atom      3   O  Mean Z*:       -2.87333
      E*x (       -2.87333       -0.00000       -0.00000 )
      E*y (       -0.00000       -2.87333        0.00000 )
      E*z (        0.00000        0.00000       -2.87333 )


     Representation #   1 modes #   1   2   3

     Self-consistent Calculation

      iter #   1 total cpu time :    91.4 secs   av.it.:  10.9
      thresh= 1.000E-02 alpha_mix =  0.700 |ddv_scf|^2 =  1.254E-07

      iter #   2 total cpu time :   100.0 secs   av.it.:  19.6
      thresh= 3.541E-05 alpha_mix =  0.700 |ddv_scf|^2 =  5.229E-09

      iter #   3 total cpu time :   108.5 secs   av.it.:  19.7
      thresh= 7.231E-06 alpha_mix =  0.700 |ddv_scf|^2 =  5.464E-12

      iter #   4 total cpu time :   117.0 secs   av.it.:  19.6
      thresh= 2.338E-07 alpha_mix =  0.700 |ddv_scf|^2 =  2.722E-13

      iter #   5 total cpu time :   125.4 secs   av.it.:  18.9
      thresh= 5.217E-08 alpha_mix =  0.700 |ddv_scf|^2 =  9.485E-16

      iter #   6 total cpu time :   133.8 secs   av.it.:  19.7
      thresh= 3.080E-09 alpha_mix =  0.700 |ddv_scf|^2 =  6.279E-18

      iter #   7 total cpu time :   142.4 secs   av.it.:  19.1
      thresh= 2.506E-10 alpha_mix =  0.700 |ddv_scf|^2 =  5.231E-19

     End of self-consistent calculation

     Convergence has been achieved 


     Representation #   2 modes #   4   5   6

     Self-consistent Calculation

      iter #   1 total cpu time :   151.0 secs   av.it.:  10.8
      thresh= 1.000E-02 alpha_mix =  0.700 |ddv_scf|^2 =  6.034E-08

      iter #   2 total cpu time :   159.7 secs   av.it.:  19.9
      thresh= 2.456E-05 alpha_mix =  0.700 |ddv_scf|^2 =  1.972E-09

      iter #   3 total cpu time :   168.8 secs   av.it.:  20.0
      thresh= 4.441E-06 alpha_mix =  0.700 |ddv_scf|^2 =  6.951E-11

      iter #   4 total cpu time :   177.6 secs   av.it.:  19.8
      thresh= 8.337E-07 alpha_mix =  0.700 |ddv_scf|^2 =  4.986E-13

      iter #   5 total cpu time :   186.3 secs   av.it.:  19.8
      thresh= 7.061E-08 alpha_mix =  0.700 |ddv_scf|^2 =  2.585E-15

      iter #   6 total cpu time :   194.9 secs   av.it.:  19.7
      thresh= 5.084E-09 alpha_mix =  0.700 |ddv_scf|^2 =  2.304E-17

      iter #   7 total cpu time :   203.5 secs   av.it.:  19.4
      thresh= 4.800E-10 alpha_mix =  0.700 |ddv_scf|^2 =  1.024E-18

      iter #   8 total cpu time :   211.7 secs   av.it.:  19.5
      thresh= 1.012E-10 alpha_mix =  0.700 |ddv_scf|^2 =  1.348E-20

     End of self-consistent calculation

     Convergence has been achieved 


     Representation #   3 modes #   7   8   9

     Self-consistent Calculation

      iter #   1 total cpu time :   220.6 secs   av.it.:  12.0
      thresh= 1.000E-02 alpha_mix =  0.700 |ddv_scf|^2 =  9.512E-08

      iter #   2 total cpu time :   229.4 secs   av.it.:  20.1
      thresh= 3.084E-05 alpha_mix =  0.700 |ddv_scf|^2 =  1.058E-08

      iter #   3 total cpu time :   238.0 secs   av.it.:  19.9
      thresh= 1.028E-05 alpha_mix =  0.700 |ddv_scf|^2 =  1.488E-11

      iter #   4 total cpu time :   246.5 secs   av.it.:  19.9
      thresh= 3.857E-07 alpha_mix =  0.700 |ddv_scf|^2 =  1.329E-13

      iter #   5 total cpu time :   254.9 secs   av.it.:  19.2
      thresh= 3.645E-08 alpha_mix =  0.700 |ddv_scf|^2 =  5.713E-15

      iter #   6 total cpu time :   263.4 secs   av.it.:  19.7
      thresh= 7.559E-09 alpha_mix =  0.700 |ddv_scf|^2 =  5.544E-17

      iter #   7 total cpu time :   271.9 secs   av.it.:  19.4
      thresh= 7.446E-10 alpha_mix =  0.700 |ddv_scf|^2 =  2.720E-18

      iter #   8 total cpu time :   280.2 secs   av.it.:  19.4
      thresh= 1.649E-10 alpha_mix =  0.700 |ddv_scf|^2 =  3.483E-20

     End of self-consistent calculation

     Convergence has been achieved 
 
     Number of q in the star =    1
     List of q in the star:
          1   0.000000000   0.000000000   0.000000000

          Dielectric constant in cartesian axis 

          (       7.978103025       0.000000000      -0.000000000 )
          (       0.000000000       7.978103025       0.000000000 )
          (      -0.000000000      -0.000000000       7.978103025 )

          Effective charges (d Force / dE) in cartesian axis without acoustic sum rule applied (asr)

           atom      1   Ce Mean Z*:        5.74722
      Ex  (        5.74722        0.00000        0.00000 )
      Ey  (        0.00000        5.74722        0.00000 )
      Ez  (       -0.00000       -0.00000        5.74722 )
           atom      2   O  Mean Z*:       -2.87278
      Ex  (       -2.87278       -0.00000       -0.00000 )
      Ey  (       -0.00000       -2.87278        0.00000 )
      Ez  (       -0.00000        0.00000       -2.87278 )
           atom      3   O  Mean Z*:       -2.87278
      Ex  (       -2.87278       -0.00000       -0.00000 )
      Ey  (       -0.00000       -2.87278        0.00000 )
      Ez  (       -0.00000        0.00000       -2.87278 )

          Effective charges Sum: Mean:        0.00166
              0.00166       -0.00000       -0.00000
             -0.00000        0.00166        0.00000
             -0.00000        0.00000        0.00166

          Effective charges (d Force / dE) in cartesian axis with asr applied: 
           atom      1   Ce Mean Z*:        5.74666
      E*x (        5.74666        0.00000        0.00000 )
      E*y (        0.00000        5.74666       -0.00000 )
      E*z (        0.00000       -0.00000        5.74666 )
           atom      2   O  Mean Z*:       -2.87333
      E*x (       -2.87333       -0.00000       -0.00000 )
      E*y (       -0.00000       -2.87333        0.00000 )
      E*z (       -0.00000        0.00000       -2.87333 )
           atom      3   O  Mean Z*:       -2.87333
      E*x (       -2.87333       -0.00000       -0.00000 )
      E*y (       -0.00000       -2.87333        0.00000 )
      E*z (        0.00000        0.00000       -2.87333 )

          Effective charges (d P / du) in cartesian axis 

           atom      1   Ce 
      Px  (        5.74721        0.00000       -0.00000 )
      Py  (        0.00000        5.74721       -0.00000 )
      Pz  (       -0.00000       -0.00000        5.74721 )
           atom      2   O  
      Px  (       -2.87277        0.00000        0.00000 )
      Py  (        0.00000       -2.87277       -0.00000 )
      Pz  (        0.00000        0.00000       -2.87277 )
           atom      3   O  
      Px  (       -2.87277        0.00000        0.00000 )
      Py  (        0.00000       -2.87277       -0.00000 )
      Pz  (        0.00000       -0.00000       -2.87277 )

     Diagonalizing the dynamical matrix

     q = (    0.000000000   0.000000000   0.000000000 ) 

 **************************************************************************
     freq (    1) =      -0.028467 [THz] =      -0.949565 [cm-1]
     freq (    2) =      -0.028467 [THz] =      -0.949565 [cm-1]
     freq (    3) =      -0.028467 [THz] =      -0.949565 [cm-1]
     freq (    4) =       7.691741 [THz] =     256.568846 [cm-1]
     freq (    5) =       7.691741 [THz] =     256.568846 [cm-1]
     freq (    6) =       7.691741 [THz] =     256.568846 [cm-1]
     freq (    7) =      12.483957 [THz] =     416.419998 [cm-1]
     freq (    8) =      12.483957 [THz] =     416.419998 [cm-1]
     freq (    9) =      12.483957 [THz] =     416.419998 [cm-1]
 **************************************************************************

     Mode symmetry, O_h (m-3m)  point group:

     freq (   1-   3) =         -0.9  [cm-1]   --> T_1u G_15  G_4- I  
     freq (   4-   6) =        256.6  [cm-1]   --> T_1u G_15  G_4- I  
     freq (   7-   9) =        416.4  [cm-1]   --> T_2g G_25' G_5+ R  

     Calculation of q =   -0.1666667   0.1666667  -0.1666667
 
     Parallelization info
     --------------------
     sticks:   dense  smooth     PW     G-vecs:    dense   smooth      PW
     Min         292     116     36                10539     2656     457
     Max         293     120     37                10541     2657     459
     Sum        2929    1165    361               105395    26565    4573
 
     Using Slab Decomposition
 

     Title: 
     default                                                                    


     bravais-lattice index     =            2
     lattice parameter (alat)  =      10.3388  a.u.
     unit-cell volume          =     276.2768 (a.u.)^3
     number of atoms/cell      =            3
     number of atomic types    =            2
     number of electrons       =        24.00
     number of Kohn-Sham states=           19
     kinetic-energy cutoff     =      80.0000  Ry
     charge density cutoff     =     800.0000  Ry
     Exchange-correlation= PBE
                           (   1   4   3   4   0   0   0)

     celldm(1)=  10.338753  celldm(2)=   0.000000  celldm(3)=   0.000000
     celldm(4)=   0.000000  celldm(5)=   0.000000  celldm(6)=   0.000000

     crystal axes: (cart. coord. in units of alat)
               a(1) = (  -0.500000   0.000000   0.500000 )  
               a(2) = (   0.000000   0.500000   0.500000 )  
               a(3) = (  -0.500000   0.500000   0.000000 )  

     reciprocal axes: (cart. coord. in units 2 pi/alat)
               b(1) = ( -1.000000 -1.000000  1.000000 )  
               b(2) = (  1.000000  1.000000  1.000000 )  
               b(3) = ( -1.000000  1.000000 -1.000000 )  


     PseudoPot. # 1 for Ce read from file:
     ./Ce.paw.z_12.atompaw.wentzcovitch.v1.2.upf
     MD5 check sum: 2241420ff980c77e0c917a2dc8a7e08e
     Pseudo is Projector augmented-wave + core cor, Zval = 12.0
     Generated using ATOMPAW code
     Shape of augmentation charge: BESSEL
     Using radial grid of 1102 points,  8 beta functions with: 
                l(1) =   0
                l(2) =   0
                l(3) =   1
                l(4) =   1
                l(5) =   2
                l(6) =   2
                l(7) =   3
                l(8) =   3
     Q(r) pseudized with 0 coefficients 


     PseudoPot. # 2 for O  read from file:
     ./O.pbe-n-kjpaw_psl.0.1.UPF
     MD5 check sum: 0234752ac141de4415c5fc33072bef88
     Pseudo is Projector augmented-wave + core cor, Zval =  6.0
     Generated using "atomic" code by A. Dal Corso  v.5.0.99 svn rev. 10869
     Shape of augmentation charge: BESSEL
     Using radial grid of 1095 points,  4 beta functions with: 
                l(1) =   0
                l(2) =   0
                l(3) =   1
                l(4) =   1
     Q(r) pseudized with 0 coefficients 


     atomic species   valence    mass     pseudopotential
        Ce            12.00   140.11600     Ce( 1.00)
        O              6.00    15.99940     O ( 1.00)

     48 Sym. Ops., with inversion, found



   Cartesian axes

     site n.     atom                  positions (alat units)
         1           Ce  tau(   1) = (   0.0000000   0.0000000   0.0000000  )
         2           O   tau(   2) = (  -0.2500000   0.2500000   0.2500000  )
         3           O   tau(   3) = (  -0.7500000   0.7500000   0.7500000  )

     number of k points=   728

     Number of k-points >= 100: set verbosity='high' to print them.

     Dense  grid:   105395 G-vectors     FFT dimensions: (  72,  72,  72)

     Smooth grid:    26565 G-vectors     FFT dimensions: (  45,  45,  45)

     Estimated max dynamical RAM per process >      38.26 MB

     Estimated total dynamical RAM >       1.49 GB

     The potential is recalculated from file :
     ./_ph0/CeO.q_2/CeO.save/charge-density

     Starting wfcs are   40 atomic wfcs
     Checking if some PAW data can be deallocated... 

     Band Structure Calculation
     Davidson diagonalization with overlap

     ethr =  4.17E-11,  avg # of iterations = 14.1

     total cpu time spent up to now is       18.5 secs

     End of band structure calculation

     Number of k-points >= 100: set verbosity='high' to print the bands.

     highest occupied, lowest unoccupied level (ev):    10.4407   12.2937

     Writing config to output data dir ./_ph0/CeO.q_2/CeO.save/

     default                                                                    

     bravais-lattice index     =            2
     lattice parameter (alat)  =      10.3388  a.u.
     unit-cell volume          =     276.2768 (a.u.)^3
     number of atoms/cell      =            3
     number of atomic types    =            2
     kinetic-energy cut-off    =      80.0000  Ry
     charge density cut-off    =     800.0000  Ry
     convergence threshold     =      1.0E-18
     beta                      =       0.7000
     number of iterations used =            4
     Exchange-correlation= PBE
                           (   1   4   3   4   0   0   0)


     celldm(1)=   10.33875  celldm(2)=    0.00000  celldm(3)=    0.00000
     celldm(4)=    0.00000  celldm(5)=    0.00000  celldm(6)=    0.00000

     crystal axes: (cart. coord. in units of alat)
               a(1) = ( -0.5000  0.0000  0.5000 )  
               a(2) = (  0.0000  0.5000  0.5000 )  
               a(3) = ( -0.5000  0.5000  0.0000 )  

     reciprocal axes: (cart. coord. in units 2 pi/alat)
               b(1) = ( -1.0000 -1.0000  1.0000 )  
               b(2) = (  1.0000  1.0000  1.0000 )  
               b(3) = ( -1.0000  1.0000 -1.0000 )  


     Atoms inside the unit cell: 

     Cartesian axes

     site n.  atom      mass           positions (alat units)
        1     Ce 140.1160   tau(    1) = (    0.00000    0.00000    0.00000  )
        2     O   15.9994   tau(    2) = (   -0.25000    0.25000    0.25000  )
        3     O   15.9994   tau(    3) = (   -0.75000    0.75000    0.75000  )

     Computing dynamical matrix for 
                    q = (  -0.1666667   0.1666667  -0.1666667 )
 
      6 Sym.Ops. (no q -> -q+G )


     G cutoff = 2166.0405  (  10540 G-vectors)     FFT grid: ( 72, 72, 72)
     G cutoff =  866.4162  (   2657 G-vectors)  smooth grid: ( 45, 45, 45)
     number of k points=   728

     PseudoPot. # 1 for Ce read from file:
     ./Ce.paw.z_12.atompaw.wentzcovitch.v1.2.upf
     MD5 check sum: 2241420ff980c77e0c917a2dc8a7e08e
     Pseudo is Projector augmented-wave + core cor, Zval = 12.0
     Generated using ATOMPAW code
     Shape of augmentation charge: BESSEL
     Using radial grid of 1102 points,  8 beta functions with: 
                l(1) =   0
                l(2) =   0
                l(3) =   1
                l(4) =   1
                l(5) =   2
                l(6) =   2
                l(7) =   3
                l(8) =   3
     Q(r) pseudized with 0 coefficients 


     PseudoPot. # 2 for O  read from file:
     ./O.pbe-n-kjpaw_psl.0.1.UPF
     MD5 check sum: 0234752ac141de4415c5fc33072bef88
     Pseudo is Projector augmented-wave + core cor, Zval =  6.0
     Generated using "atomic" code by A. Dal Corso  v.5.0.99 svn rev. 10869
     Shape of augmentation charge: BESSEL
     Using radial grid of 1095 points,  4 beta functions with: 
                l(1) =   0
                l(2) =   0
                l(3) =   1
                l(4) =   1
     Q(r) pseudized with 0 coefficients 


     Mode symmetry, C_3v (3m)   point group:


     Atomic displacements:
     There are    6 irreducible representations

     Representation     1      1 modes -  To be done

     Representation     2      1 modes -  To be done

     Representation     3      1 modes -  To be done

     Representation     4      2 modes -  To be done

     Representation     5      2 modes -  To be done

     Representation     6      2 modes -  To be done



     Alpha used in Ewald sum =   2.8000
     PHONON       :   4m32.81s CPU   5m 8.65s WALL



     Representation #   1 mode #   1

     Self-consistent Calculation

      iter #   1 total cpu time :   315.6 secs   av.it.:  13.1
      thresh= 1.000E-02 alpha_mix =  0.700 |ddv_scf|^2 =  9.626E-04

      iter #   2 total cpu time :   323.3 secs   av.it.:  17.1
      thresh= 3.103E-03 alpha_mix =  0.700 |ddv_scf|^2 =  1.897E-02

      iter #   3 total cpu time :   330.4 secs   av.it.:  15.0
      thresh= 1.000E-02 alpha_mix =  0.700 |ddv_scf|^2 =  2.382E-05

      iter #   4 total cpu time :   338.8 secs   av.it.:  17.7
      thresh= 4.881E-04 alpha_mix =  0.700 |ddv_scf|^2 =  2.902E-05

      iter #   5 total cpu time :   347.0 secs   av.it.:  16.8
      thresh= 5.387E-04 alpha_mix =  0.700 |ddv_scf|^2 =  2.934E-07

      iter #   6 total cpu time :   355.2 secs   av.it.:  17.6
      thresh= 5.416E-05 alpha_mix =  0.700 |ddv_scf|^2 =  1.993E-08

      iter #   7 total cpu time :   363.7 secs   av.it.:  17.4
      thresh= 1.412E-05 alpha_mix =  0.700 |ddv_scf|^2 =  8.104E-09

      iter #   8 total cpu time :   371.4 secs   av.it.:  15.4
      thresh= 9.002E-06 alpha_mix =  0.700 |ddv_scf|^2 =  3.884E-10

      iter #   9 total cpu time :   379.0 secs   av.it.:  16.3
      thresh= 1.971E-06 alpha_mix =  0.700 |ddv_scf|^2 =  2.278E-12

      iter #  10 total cpu time :   386.9 secs   av.it.:  16.7
      thresh= 1.509E-07 alpha_mix =  0.700 |ddv_scf|^2 =  1.052E-12

      iter #  11 total cpu time :   395.1 secs   av.it.:  17.4
      thresh= 1.026E-07 alpha_mix =  0.700 |ddv_scf|^2 =  8.152E-13

      iter #  12 total cpu time :   403.7 secs   av.it.:  18.1
      thresh= 9.029E-08 alpha_mix =  0.700 |ddv_scf|^2 =  1.190E-12

      iter #  13 total cpu time :   411.8 secs   av.it.:  17.0
      thresh= 1.091E-07 alpha_mix =  0.700 |ddv_scf|^2 =  2.633E-14

      iter #  14 total cpu time :   420.2 secs   av.it.:  18.3
      thresh= 1.623E-08 alpha_mix =  0.700 |ddv_scf|^2 =  4.330E-14

      iter #  15 total cpu time :   428.4 secs   av.it.:  16.6
      thresh= 2.081E-08 alpha_mix =  0.700 |ddv_scf|^2 =  5.819E-16

      iter #  16 total cpu time :   437.0 secs   av.it.:  18.4
      thresh= 2.412E-09 alpha_mix =  0.700 |ddv_scf|^2 =  1.021E-15

      iter #  17 total cpu time :   444.7 secs   av.it.:  16.6
      thresh= 3.195E-09 alpha_mix =  0.700 |ddv_scf|^2 =  4.561E-16

      iter #  18 total cpu time :   452.8 secs   av.it.:  17.5
      thresh= 2.136E-09 alpha_mix =  0.700 |ddv_scf|^2 =  2.848E-16

      iter #  19 total cpu time :   461.1 secs   av.it.:  17.8
      thresh= 1.688E-09 alpha_mix =  0.700 |ddv_scf|^2 =  7.261E-17

      iter #  20 total cpu time :   469.2 secs   av.it.:  17.9
      thresh= 8.521E-10 alpha_mix =  0.700 |ddv_scf|^2 =  1.997E-17

      iter #  21 total cpu time :   477.6 secs   av.it.:  18.0
      thresh= 4.468E-10 alpha_mix =  0.700 |ddv_scf|^2 =  1.378E-18

      iter #  22 total cpu time :   485.7 secs   av.it.:  17.6
      thresh= 1.174E-10 alpha_mix =  0.700 |ddv_scf|^2 =  7.773E-19

     End of self-consistent calculation

     Convergence has been achieved 


     Representation #   2 mode #   2

     Self-consistent Calculation

      iter #   1 total cpu time :   493.8 secs   av.it.:  12.0
      thresh= 1.000E-02 alpha_mix =  0.700 |ddv_scf|^2 =  3.582E-04

      iter #   2 total cpu time :   502.0 secs   av.it.:  17.2
      thresh= 1.893E-03 alpha_mix =  0.700 |ddv_scf|^2 =  7.581E-03

      iter #   3 total cpu time :   509.5 secs   av.it.:  14.5
      thresh= 8.707E-03 alpha_mix =  0.700 |ddv_scf|^2 =  7.901E-06

      iter #   4 total cpu time :   517.8 secs   av.it.:  18.0
      thresh= 2.811E-04 alpha_mix =  0.700 |ddv_scf|^2 =  1.364E-05

      iter #   5 total cpu time :   525.7 secs   av.it.:  16.7
      thresh= 3.693E-04 alpha_mix =  0.700 |ddv_scf|^2 =  1.895E-07

      iter #   6 total cpu time :   534.5 secs   av.it.:  17.4
      thresh= 4.353E-05 alpha_mix =  0.700 |ddv_scf|^2 =  2.193E-08

      iter #   7 total cpu time :   542.8 secs   av.it.:  17.6
      thresh= 1.481E-05 alpha_mix =  0.700 |ddv_scf|^2 =  7.448E-10

      iter #   8 total cpu time :   551.1 secs   av.it.:  17.8
      thresh= 2.729E-06 alpha_mix =  0.700 |ddv_scf|^2 =  7.094E-11

      iter #   9 total cpu time :   559.2 secs   av.it.:  17.1
      thresh= 8.423E-07 alpha_mix =  0.700 |ddv_scf|^2 =  1.727E-10

      iter #  10 total cpu time :   567.2 secs   av.it.:  16.3
      thresh= 1.314E-06 alpha_mix =  0.700 |ddv_scf|^2 =  4.728E-13

      iter #  11 total cpu time :   575.6 secs   av.it.:  17.9
      thresh= 6.876E-08 alpha_mix =  0.700 |ddv_scf|^2 =  3.393E-13

      iter #  12 total cpu time :   584.3 secs   av.it.:  18.2
      thresh= 5.825E-08 alpha_mix =  0.700 |ddv_scf|^2 =  4.280E-13

      iter #  13 total cpu time :   592.5 secs   av.it.:  17.3
      thresh= 6.542E-08 alpha_mix =  0.700 |ddv_scf|^2 =  1.235E-13

      iter #  14 total cpu time :   601.0 secs   av.it.:  18.5
      thresh= 3.514E-08 alpha_mix =  0.700 |ddv_scf|^2 =  2.659E-13

      iter #  15 total cpu time :   609.2 secs   av.it.:  17.8
      thresh= 5.156E-08 alpha_mix =  0.700 |ddv_scf|^2 =  1.284E-13

      iter #  16 total cpu time :   617.5 secs   av.it.:  17.3
      thresh= 3.583E-08 alpha_mix =  0.700 |ddv_scf|^2 =  1.350E-15

      iter #  17 total cpu time :   626.4 secs   av.it.:  18.0
      thresh= 3.674E-09 alpha_mix =  0.700 |ddv_scf|^2 =  5.494E-16

      iter #  18 total cpu time :   635.0 secs   av.it.:  17.8
      thresh= 2.344E-09 alpha_mix =  0.700 |ddv_scf|^2 =  6.286E-16

      iter #  19 total cpu time :   643.3 secs   av.it.:  17.6
      thresh= 2.507E-09 alpha_mix =  0.700 |ddv_scf|^2 =  2.896E-16

      iter #  20 total cpu time :   651.3 secs   av.it.:  17.3
      thresh= 1.702E-09 alpha_mix =  0.700 |ddv_scf|^2 =  2.496E-16

      iter #  21 total cpu time :   659.6 secs   av.it.:  17.2
      thresh= 1.580E-09 alpha_mix =  0.700 |ddv_scf|^2 =  3.216E-17

      iter #  22 total cpu time :   667.9 secs   av.it.:  18.2
      thresh= 5.671E-10 alpha_mix =  0.700 |ddv_scf|^2 =  2.937E-17

      iter #  23 total cpu time :   676.0 secs   av.it.:  17.6
      thresh= 5.420E-10 alpha_mix =  0.700 |ddv_scf|^2 =  2.130E-17

      iter #  24 total cpu time :   684.2 secs   av.it.:  17.2
      thresh= 4.615E-10 alpha_mix =  0.700 |ddv_scf|^2 =  1.159E-17

      iter #  25 total cpu time :   692.2 secs   av.it.:  17.1
      thresh= 3.404E-10 alpha_mix =  0.700 |ddv_scf|^2 =  9.884E-20

     End of self-consistent calculation

     Convergence has been achieved 


     Representation #   3 mode #   3

     Self-consistent Calculation

      iter #   1 total cpu time :   700.5 secs   av.it.:  12.0
      thresh= 1.000E-02 alpha_mix =  0.700 |ddv_scf|^2 =  3.582E-04

      iter #   2 total cpu time :   709.2 secs   av.it.:  17.2
      thresh= 1.893E-03 alpha_mix =  0.700 |ddv_scf|^2 =  7.581E-03

      iter #   3 total cpu time :   716.4 secs   av.it.:  14.5
      thresh= 8.707E-03 alpha_mix =  0.700 |ddv_scf|^2 =  7.901E-06

      iter #   4 total cpu time :   724.5 secs   av.it.:  18.0
      thresh= 2.811E-04 alpha_mix =  0.700 |ddv_scf|^2 =  1.364E-05

      iter #   5 total cpu time :   732.4 secs   av.it.:  16.7
      thresh= 3.693E-04 alpha_mix =  0.700 |ddv_scf|^2 =  1.895E-07

      iter #   6 total cpu time :   740.3 secs   av.it.:  17.4
      thresh= 4.353E-05 alpha_mix =  0.700 |ddv_scf|^2 =  2.193E-08

      iter #   7 total cpu time :   748.4 secs   av.it.:  17.6
      thresh= 1.481E-05 alpha_mix =  0.700 |ddv_scf|^2 =  7.446E-10

      iter #   8 total cpu time :   756.6 secs   av.it.:  17.8
      thresh= 2.729E-06 alpha_mix =  0.700 |ddv_scf|^2 =  6.998E-11

      iter #   9 total cpu time :   764.9 secs   av.it.:  17.2
      thresh= 8.365E-07 alpha_mix =  0.700 |ddv_scf|^2 =  1.764E-10

      iter #  10 total cpu time :   772.5 secs   av.it.:  16.3
      thresh= 1.328E-06 alpha_mix =  0.700 |ddv_scf|^2 =  4.653E-13

      iter #  11 total cpu time :   780.9 secs   av.it.:  17.9
      thresh= 6.822E-08 alpha_mix =  0.700 |ddv_scf|^2 =  3.519E-13

      iter #  12 total cpu time :   789.1 secs   av.it.:  18.2
      thresh= 5.932E-08 alpha_mix =  0.700 |ddv_scf|^2 =  4.019E-13

      iter #  13 total cpu time :   797.1 secs   av.it.:  17.3
      thresh= 6.340E-08 alpha_mix =  0.700 |ddv_scf|^2 =  1.247E-13

      iter #  14 total cpu time :   805.7 secs   av.it.:  18.5
      thresh= 3.531E-08 alpha_mix =  0.700 |ddv_scf|^2 =  2.640E-13

      iter #  15 total cpu time :   813.8 secs   av.it.:  17.8
      thresh= 5.138E-08 alpha_mix =  0.700 |ddv_scf|^2 =  1.276E-13

      iter #  16 total cpu time :   821.7 secs   av.it.:  17.3
      thresh= 3.572E-08 alpha_mix =  0.700 |ddv_scf|^2 =  1.362E-15

      iter #  17 total cpu time :   829.8 secs   av.it.:  18.0
      thresh= 3.691E-09 alpha_mix =  0.700 |ddv_scf|^2 =  5.045E-16

      iter #  18 total cpu time :   838.1 secs   av.it.:  17.6
      thresh= 2.246E-09 alpha_mix =  0.700 |ddv_scf|^2 =  6.738E-16

      iter #  19 total cpu time :   846.1 secs   av.it.:  17.4
      thresh= 2.596E-09 alpha_mix =  0.700 |ddv_scf|^2 =  3.061E-16

      iter #  20 total cpu time :   854.2 secs   av.it.:  17.3
      thresh= 1.750E-09 alpha_mix =  0.700 |ddv_scf|^2 =  2.374E-16

      iter #  21 total cpu time :   862.3 secs   av.it.:  17.3
      thresh= 1.541E-09 alpha_mix =  0.700 |ddv_scf|^2 =  2.377E-17

      iter #  22 total cpu time :   870.8 secs   av.it.:  18.5
      thresh= 4.876E-10 alpha_mix =  0.700 |ddv_scf|^2 =  2.759E-17

      iter #  23 total cpu time :   878.8 secs   av.it.:  17.7
      thresh= 5.253E-10 alpha_mix =  0.700 |ddv_scf|^2 =  1.382E-17

      iter #  24 total cpu time :   887.5 secs   av.it.:  18.3
      thresh= 3.717E-10 alpha_mix =  0.700 |ddv_scf|^2 =  4.554E-17

      iter #  25 total cpu time :   895.3 secs   av.it.:  16.7
      thresh= 6.749E-10 alpha_mix =  0.700 |ddv_scf|^2 =  1.970E-19

     End of self-consistent calculation

     Convergence has been achieved 


     Representation #   4 modes #   4   5

     Self-consistent Calculation

      iter #   1 total cpu time :   908.7 secs   av.it.:  11.5
      thresh= 1.000E-02 alpha_mix =  0.700 |ddv_scf|^2 =  2.165E-07

      iter #   2 total cpu time :   925.9 secs   av.it.:  20.1
      thresh= 4.653E-05 alpha_mix =  0.700 |ddv_scf|^2 =  1.014E-08

      iter #   3 total cpu time :   942.7 secs   av.it.:  20.0
      thresh= 1.007E-05 alpha_mix =  0.700 |ddv_scf|^2 =  1.297E-10

      iter #   4 total cpu time :   959.9 secs   av.it.:  19.8
      thresh= 1.139E-06 alpha_mix =  0.700 |ddv_scf|^2 =  2.036E-12

      iter #   5 total cpu time :   976.8 secs   av.it.:  20.0
      thresh= 1.427E-07 alpha_mix =  0.700 |ddv_scf|^2 =  1.359E-13

      iter #   6 total cpu time :   993.7 secs   av.it.:  19.6
      thresh= 3.687E-08 alpha_mix =  0.700 |ddv_scf|^2 =  9.354E-16

      iter #   7 total cpu time :  1010.4 secs   av.it.:  19.4
      thresh= 3.058E-09 alpha_mix =  0.700 |ddv_scf|^2 =  6.756E-17

      iter #   8 total cpu time :  1027.6 secs   av.it.:  20.0
      thresh= 8.219E-10 alpha_mix =  0.700 |ddv_scf|^2 =  6.984E-19

     End of self-consistent calculation

     Convergence has been achieved 


     Representation #   5 modes #   6   7

     Self-consistent Calculation

      iter #   1 total cpu time :  1041.2 secs   av.it.:  11.5
      thresh= 1.000E-02 alpha_mix =  0.700 |ddv_scf|^2 =  2.165E-07

      iter #   2 total cpu time :  1058.4 secs   av.it.:  20.1
      thresh= 4.653E-05 alpha_mix =  0.700 |ddv_scf|^2 =  1.014E-08

      iter #   3 total cpu time :  1075.9 secs   av.it.:  20.0
      thresh= 1.007E-05 alpha_mix =  0.700 |ddv_scf|^2 =  1.297E-10

      iter #   4 total cpu time :  1092.8 secs   av.it.:  19.9
      thresh= 1.139E-06 alpha_mix =  0.700 |ddv_scf|^2 =  2.037E-12

      iter #   5 total cpu time :  1109.9 secs   av.it.:  20.0
      thresh= 1.427E-07 alpha_mix =  0.700 |ddv_scf|^2 =  1.359E-13

      iter #   6 total cpu time :  1126.9 secs   av.it.:  19.7
      thresh= 3.687E-08 alpha_mix =  0.700 |ddv_scf|^2 =  9.358E-16

      iter #   7 total cpu time :  1143.5 secs   av.it.:  19.4
      thresh= 3.059E-09 alpha_mix =  0.700 |ddv_scf|^2 =  6.757E-17

      iter #   8 total cpu time :  1160.5 secs   av.it.:  20.0
      thresh= 8.220E-10 alpha_mix =  0.700 |ddv_scf|^2 =  6.994E-19

     End of self-consistent calculation

     Convergence has been achieved 


     Representation #   6 modes #   8   9

     Self-consistent Calculation

      iter #   1 total cpu time :  1175.3 secs   av.it.:  11.9
      thresh= 1.000E-02 alpha_mix =  0.700 |ddv_scf|^2 =  2.318E-07

      iter #   2 total cpu time :  1192.1 secs   av.it.:  19.4
      thresh= 4.814E-05 alpha_mix =  0.700 |ddv_scf|^2 =  2.929E-08

      iter #   3 total cpu time :  1208.9 secs   av.it.:  19.1
      thresh= 1.711E-05 alpha_mix =  0.700 |ddv_scf|^2 =  3.709E-11

      iter #   4 total cpu time :  1225.6 secs   av.it.:  19.2
      thresh= 6.090E-07 alpha_mix =  0.700 |ddv_scf|^2 =  1.398E-12

      iter #   5 total cpu time :  1242.2 secs   av.it.:  19.3
      thresh= 1.182E-07 alpha_mix =  0.700 |ddv_scf|^2 =  3.833E-14

      iter #   6 total cpu time :  1258.7 secs   av.it.:  18.9
      thresh= 1.958E-08 alpha_mix =  0.700 |ddv_scf|^2 =  8.676E-16

      iter #   7 total cpu time :  1275.4 secs   av.it.:  19.2
      thresh= 2.945E-09 alpha_mix =  0.700 |ddv_scf|^2 =  2.028E-17

      iter #   8 total cpu time :  1291.8 secs   av.it.:  19.0
      thresh= 4.504E-10 alpha_mix =  0.700 |ddv_scf|^2 =  7.409E-19

     End of self-consistent calculation

     Convergence has been achieved 
 
     Number of q in the star =    8
     List of q in the star:
          1  -0.166666667   0.166666667  -0.166666667
          2   0.166666667   0.166666667   0.166666667
          3  -0.166666667  -0.166666667  -0.166666667
          4   0.166666667  -0.166666667   0.166666667
          5   0.166666667  -0.166666667  -0.166666667
          6   0.166666667   0.166666667  -0.166666667
          7  -0.166666667  -0.166666667   0.166666667
          8  -0.166666667   0.166666667   0.166666667

     Diagonalizing the dynamical matrix

     q = (   -0.166666667   0.166666667  -0.166666667 ) 

 **************************************************************************
     freq (    1) =       1.813868 [THz] =      60.504135 [cm-1]
     freq (    2) =       1.813868 [THz] =      60.504135 [cm-1]
     freq (    3) =       2.956217 [THz] =      98.608794 [cm-1]
     freq (    4) =       7.930292 [THz] =     264.526075 [cm-1]
     freq (    5) =       7.930292 [THz] =     264.526075 [cm-1]
     freq (    6) =      12.174451 [THz] =     406.095975 [cm-1]
     freq (    7) =      12.203234 [THz] =     407.056056 [cm-1]
     freq (    8) =      12.203234 [THz] =     407.056056 [cm-1]
     freq (    9) =      15.100138 [THz] =     503.686394 [cm-1]
 **************************************************************************

     Mode symmetry, C_3v (3m)   point group:

     freq (   1-   2) =         60.5  [cm-1]   --> E    L_3           
     freq (   3-   3) =         98.6  [cm-1]   --> A_1  L_1           
     freq (   4-   5) =        264.5  [cm-1]   --> E    L_3           
     freq (   6-   6) =        406.1  [cm-1]   --> A_1  L_1           
     freq (   7-   8) =        407.1  [cm-1]   --> E    L_3           
     freq (   9-   9) =        503.7  [cm-1]   --> A_1  L_1           

     Calculation of q =   -0.3333333   0.3333333  -0.3333333
 
     Parallelization info
     --------------------
     sticks:   dense  smooth     PW     G-vecs:    dense   smooth      PW
     Min         292     116     36                10539     2656     467
     Max         293     120     37                10541     2657     470
     Sum        2929    1165    367               105395    26565    4693
 
     Using Slab Decomposition
 

     Title: 
     default                                                                    


     bravais-lattice index     =            2
     lattice parameter (alat)  =      10.3388  a.u.
     unit-cell volume          =     276.2768 (a.u.)^3
     number of atoms/cell      =            3
     number of atomic types    =            2
     number of electrons       =        24.00
     number of Kohn-Sham states=           19
     kinetic-energy cutoff     =      80.0000  Ry
     charge density cutoff     =     800.0000  Ry
     Exchange-correlation= PBE
                           (   1   4   3   4   0   0   0)

     celldm(1)=  10.338753  celldm(2)=   0.000000  celldm(3)=   0.000000
     celldm(4)=   0.000000  celldm(5)=   0.000000  celldm(6)=   0.000000

     crystal axes: (cart. coord. in units of alat)
               a(1) = (  -0.500000   0.000000   0.500000 )  
               a(2) = (   0.000000   0.500000   0.500000 )  
               a(3) = (  -0.500000   0.500000   0.000000 )  

     reciprocal axes: (cart. coord. in units 2 pi/alat)
               b(1) = ( -1.000000 -1.000000  1.000000 )  
               b(2) = (  1.000000  1.000000  1.000000 )  
               b(3) = ( -1.000000  1.000000 -1.000000 )  


     PseudoPot. # 1 for Ce read from file:
     ./Ce.paw.z_12.atompaw.wentzcovitch.v1.2.upf
     MD5 check sum: 2241420ff980c77e0c917a2dc8a7e08e
     Pseudo is Projector augmented-wave + core cor, Zval = 12.0
     Generated using ATOMPAW code
     Shape of augmentation charge: BESSEL
     Using radial grid of 1102 points,  8 beta functions with: 
                l(1) =   0
                l(2) =   0
                l(3) =   1
                l(4) =   1
                l(5) =   2
                l(6) =   2
                l(7) =   3
                l(8) =   3
     Q(r) pseudized with 0 coefficients 


     PseudoPot. # 2 for O  read from file:
     ./O.pbe-n-kjpaw_psl.0.1.UPF
     MD5 check sum: 0234752ac141de4415c5fc33072bef88
     Pseudo is Projector augmented-wave + core cor, Zval =  6.0
     Generated using "atomic" code by A. Dal Corso  v.5.0.99 svn rev. 10869
     Shape of augmentation charge: BESSEL
     Using radial grid of 1095 points,  4 beta functions with: 
                l(1) =   0
                l(2) =   0
                l(3) =   1
                l(4) =   1
     Q(r) pseudized with 0 coefficients 


     atomic species   valence    mass     pseudopotential
        Ce            12.00   140.11600     Ce( 1.00)
        O              6.00    15.99940     O ( 1.00)

     48 Sym. Ops., with inversion, found



   Cartesian axes

     site n.     atom                  positions (alat units)
         1           Ce  tau(   1) = (   0.0000000   0.0000000   0.0000000  )
         2           O   tau(   2) = (  -0.2500000   0.2500000   0.2500000  )
         3           O   tau(   3) = (  -0.7500000   0.7500000   0.7500000  )

     number of k points=   728

     Number of k-points >= 100: set verbosity='high' to print them.

     Dense  grid:   105395 G-vectors     FFT dimensions: (  72,  72,  72)

     Smooth grid:    26565 G-vectors     FFT dimensions: (  45,  45,  45)

     Estimated max dynamical RAM per process >      38.33 MB

     Estimated total dynamical RAM >       1.50 GB

     The potential is recalculated from file :
     ./_ph0/CeO.q_3/CeO.save/charge-density

     Starting wfcs are   40 atomic wfcs
     Checking if some PAW data can be deallocated... 

     Band Structure Calculation
     Davidson diagonalization with overlap

     ethr =  4.17E-11,  avg # of iterations = 14.1

     total cpu time spent up to now is       38.2 secs

     End of band structure calculation

     Number of k-points >= 100: set verbosity='high' to print the bands.

     highest occupied, lowest unoccupied level (ev):    10.4407   12.2937

     Writing config to output data dir ./_ph0/CeO.q_3/CeO.save/

     default                                                                    

     bravais-lattice index     =            2
     lattice parameter (alat)  =      10.3388  a.u.
     unit-cell volume          =     276.2768 (a.u.)^3
     number of atoms/cell      =            3
     number of atomic types    =            2
     kinetic-energy cut-off    =      80.0000  Ry
     charge density cut-off    =     800.0000  Ry
     convergence threshold     =      1.0E-18
     beta                      =       0.7000
     number of iterations used =            4
     Exchange-correlation= PBE
                           (   1   4   3   4   0   0   0)


     celldm(1)=   10.33875  celldm(2)=    0.00000  celldm(3)=    0.00000
     celldm(4)=    0.00000  celldm(5)=    0.00000  celldm(6)=    0.00000

     crystal axes: (cart. coord. in units of alat)
               a(1) = ( -0.5000  0.0000  0.5000 )  
               a(2) = (  0.0000  0.5000  0.5000 )  
               a(3) = ( -0.5000  0.5000  0.0000 )  

     reciprocal axes: (cart. coord. in units 2 pi/alat)
               b(1) = ( -1.0000 -1.0000  1.0000 )  
               b(2) = (  1.0000  1.0000  1.0000 )  
               b(3) = ( -1.0000  1.0000 -1.0000 )  


     Atoms inside the unit cell: 

     Cartesian axes

     site n.  atom      mass           positions (alat units)
        1     Ce 140.1160   tau(    1) = (    0.00000    0.00000    0.00000  )
        2     O   15.9994   tau(    2) = (   -0.25000    0.25000    0.25000  )
        3     O   15.9994   tau(    3) = (   -0.75000    0.75000    0.75000  )

     Computing dynamical matrix for 
                    q = (  -0.3333333   0.3333333  -0.3333333 )
 
      6 Sym.Ops. (no q -> -q+G )


     G cutoff = 2166.0405  (  10540 G-vectors)     FFT grid: ( 72, 72, 72)
     G cutoff =  866.4162  (   2657 G-vectors)  smooth grid: ( 45, 45, 45)
     number of k points=   728

     PseudoPot. # 1 for Ce read from file:
     ./Ce.paw.z_12.atompaw.wentzcovitch.v1.2.upf
     MD5 check sum: 2241420ff980c77e0c917a2dc8a7e08e
     Pseudo is Projector augmented-wave + core cor, Zval = 12.0
     Generated using ATOMPAW code
     Shape of augmentation charge: BESSEL
     Using radial grid of 1102 points,  8 beta functions with: 
                l(1) =   0
                l(2) =   0
                l(3) =   1
                l(4) =   1
                l(5) =   2
                l(6) =   2
                l(7) =   3
                l(8) =   3
     Q(r) pseudized with 0 coefficients 


     PseudoPot. # 2 for O  read from file:
     ./O.pbe-n-kjpaw_psl.0.1.UPF
     MD5 check sum: 0234752ac141de4415c5fc33072bef88
     Pseudo is Projector augmented-wave + core cor, Zval =  6.0
     Generated using "atomic" code by A. Dal Corso  v.5.0.99 svn rev. 10869
     Shape of augmentation charge: BESSEL
     Using radial grid of 1095 points,  4 beta functions with: 
                l(1) =   0
                l(2) =   0
                l(3) =   1
                l(4) =   1
     Q(r) pseudized with 0 coefficients 


     Mode symmetry, C_3v (3m)   point group:


     Atomic displacements:
     There are    6 irreducible representations

     Representation     1      1 modes -  To be done

     Representation     2      1 modes -  To be done

     Representation     3      1 modes -  To be done

     Representation     4      2 modes -  To be done

     Representation     5      2 modes -  To be done

     Representation     6      2 modes -  To be done



     Alpha used in Ewald sum =   2.8000
     PHONON       :  19m56.44s CPU  21m59.99s WALL



     Representation #   1 mode #   1

     Self-consistent Calculation

      iter #   1 total cpu time :  1326.8 secs   av.it.:  13.0
      thresh= 1.000E-02 alpha_mix =  0.700 |ddv_scf|^2 =  1.229E-04

      iter #   2 total cpu time :  1334.9 secs   av.it.:  18.2
      thresh= 1.108E-03 alpha_mix =  0.700 |ddv_scf|^2 =  1.568E-03

      iter #   3 total cpu time :  1342.4 secs   av.it.:  16.0
      thresh= 3.959E-03 alpha_mix =  0.700 |ddv_scf|^2 =  3.639E-05

      iter #   4 total cpu time :  1350.4 secs   av.it.:  17.2
      thresh= 6.032E-04 alpha_mix =  0.700 |ddv_scf|^2 =  3.850E-06

      iter #   5 total cpu time :  1358.7 secs   av.it.:  17.6
      thresh= 1.962E-04 alpha_mix =  0.700 |ddv_scf|^2 =  7.837E-08

      iter #   6 total cpu time :  1366.9 secs   av.it.:  18.1
      thresh= 2.799E-05 alpha_mix =  0.700 |ddv_scf|^2 =  5.392E-08

      iter #   7 total cpu time :  1375.0 secs   av.it.:  17.5
      thresh= 2.322E-05 alpha_mix =  0.700 |ddv_scf|^2 =  1.926E-09

      iter #   8 total cpu time :  1382.8 secs   av.it.:  16.4
      thresh= 4.388E-06 alpha_mix =  0.700 |ddv_scf|^2 =  2.737E-11

      iter #   9 total cpu time :  1390.9 secs   av.it.:  17.5
      thresh= 5.232E-07 alpha_mix =  0.700 |ddv_scf|^2 =  3.715E-13

      iter #  10 total cpu time :  1399.4 secs   av.it.:  18.7
      thresh= 6.095E-08 alpha_mix =  0.700 |ddv_scf|^2 =  1.263E-13

      iter #  11 total cpu time :  1407.7 secs   av.it.:  18.4
      thresh= 3.554E-08 alpha_mix =  0.700 |ddv_scf|^2 =  1.223E-13

      iter #  12 total cpu time :  1415.8 secs   av.it.:  17.2
      thresh= 3.497E-08 alpha_mix =  0.700 |ddv_scf|^2 =  3.547E-14

      iter #  13 total cpu time :  1424.5 secs   av.it.:  16.6
      thresh= 1.883E-08 alpha_mix =  0.700 |ddv_scf|^2 =  1.431E-15

      iter #  14 total cpu time :  1433.0 secs   av.it.:  17.7
      thresh= 3.784E-09 alpha_mix =  0.700 |ddv_scf|^2 =  1.735E-16

      iter #  15 total cpu time :  1441.5 secs   av.it.:  19.0
      thresh= 1.317E-09 alpha_mix =  0.700 |ddv_scf|^2 =  3.356E-16

      iter #  16 total cpu time :  1449.8 secs   av.it.:  17.6
      thresh= 1.832E-09 alpha_mix =  0.700 |ddv_scf|^2 =  6.984E-18

      iter #  17 total cpu time :  1458.1 secs   av.it.:  17.8
      thresh= 2.643E-10 alpha_mix =  0.700 |ddv_scf|^2 =  7.274E-18

      iter #  18 total cpu time :  1466.6 secs   av.it.:  18.0
      thresh= 2.697E-10 alpha_mix =  0.700 |ddv_scf|^2 =  1.298E-17

      iter #  19 total cpu time :  1474.6 secs   av.it.:  17.5
      thresh= 3.602E-10 alpha_mix =  0.700 |ddv_scf|^2 =  1.235E-17

      iter #  20 total cpu time :  1482.8 secs   av.it.:  17.3
      thresh= 3.514E-10 alpha_mix =  0.700 |ddv_scf|^2 =  3.272E-19

     End of self-consistent calculation

     Convergence has been achieved 


     Representation #   2 mode #   2

     Self-consistent Calculation

      iter #   1 total cpu time :  1490.7 secs   av.it.:  12.1
      thresh= 1.000E-02 alpha_mix =  0.700 |ddv_scf|^2 =  5.543E-05

      iter #   2 total cpu time :  1499.3 secs   av.it.:  18.5
      thresh= 7.445E-04 alpha_mix =  0.700 |ddv_scf|^2 =  9.404E-04

      iter #   3 total cpu time :  1507.1 secs   av.it.:  16.2
      thresh= 3.067E-03 alpha_mix =  0.700 |ddv_scf|^2 =  2.129E-05

      iter #   4 total cpu time :  1515.0 secs   av.it.:  17.3
      thresh= 4.614E-04 alpha_mix =  0.700 |ddv_scf|^2 =  1.196E-06

      iter #   5 total cpu time :  1523.9 secs   av.it.:  17.9
      thresh= 1.094E-04 alpha_mix =  0.700 |ddv_scf|^2 =  9.824E-08

      iter #   6 total cpu time :  1532.1 secs   av.it.:  17.9
      thresh= 3.134E-05 alpha_mix =  0.700 |ddv_scf|^2 =  3.325E-08

      iter #   7 total cpu time :  1540.3 secs   av.it.:  17.6
      thresh= 1.823E-05 alpha_mix =  0.700 |ddv_scf|^2 =  4.976E-09

      iter #   8 total cpu time :  1548.2 secs   av.it.:  17.2
      thresh= 7.054E-06 alpha_mix =  0.700 |ddv_scf|^2 =  2.509E-10

      iter #   9 total cpu time :  1556.5 secs   av.it.:  18.4
      thresh= 1.584E-06 alpha_mix =  0.700 |ddv_scf|^2 =  4.352E-10

      iter #  10 total cpu time :  1564.5 secs   av.it.:  16.5
      thresh= 2.086E-06 alpha_mix =  0.700 |ddv_scf|^2 =  2.001E-11

      iter #  11 total cpu time :  1572.5 secs   av.it.:  17.7
      thresh= 4.473E-07 alpha_mix =  0.700 |ddv_scf|^2 =  9.071E-13

      iter #  12 total cpu time :  1580.9 secs   av.it.:  18.2
      thresh= 9.524E-08 alpha_mix =  0.700 |ddv_scf|^2 =  7.421E-13

      iter #  13 total cpu time :  1589.3 secs   av.it.:  18.0
      thresh= 8.614E-08 alpha_mix =  0.700 |ddv_scf|^2 =  7.490E-13

      iter #  14 total cpu time :  1597.6 secs   av.it.:  18.0
      thresh= 8.654E-08 alpha_mix =  0.700 |ddv_scf|^2 =  3.104E-13

      iter #  15 total cpu time :  1606.3 secs   av.it.:  18.0
      thresh= 5.571E-08 alpha_mix =  0.700 |ddv_scf|^2 =  1.956E-13

      iter #  16 total cpu time :  1614.2 secs   av.it.:  17.2
      thresh= 4.423E-08 alpha_mix =  0.700 |ddv_scf|^2 =  5.056E-15

      iter #  17 total cpu time :  1622.9 secs   av.it.:  19.1
      thresh= 7.110E-09 alpha_mix =  0.700 |ddv_scf|^2 =  3.078E-14

      iter #  18 total cpu time :  1631.1 secs   av.it.:  17.1
      thresh= 1.754E-08 alpha_mix =  0.700 |ddv_scf|^2 =  8.636E-16

      iter #  19 total cpu time :  1640.2 secs   av.it.:  18.5
      thresh= 2.939E-09 alpha_mix =  0.700 |ddv_scf|^2 =  2.505E-15

      iter #  20 total cpu time :  1648.5 secs   av.it.:  17.6
      thresh= 5.005E-09 alpha_mix =  0.700 |ddv_scf|^2 =  6.501E-16

      iter #  21 total cpu time :  1656.6 secs   av.it.:  17.7
      thresh= 2.550E-09 alpha_mix =  0.700 |ddv_scf|^2 =  1.999E-16

      iter #  22 total cpu time :  1664.8 secs   av.it.:  17.9
      thresh= 1.414E-09 alpha_mix =  0.700 |ddv_scf|^2 =  7.631E-17

      iter #  23 total cpu time :  1673.3 secs   av.it.:  17.9
      thresh= 8.736E-10 alpha_mix =  0.700 |ddv_scf|^2 =  6.844E-17

      iter #  24 total cpu time :  1681.8 secs   av.it.:  17.5
      thresh= 8.273E-10 alpha_mix =  0.700 |ddv_scf|^2 =  9.783E-18

      iter #  25 total cpu time :  1690.2 secs   av.it.:  18.1
      thresh= 3.128E-10 alpha_mix =  0.700 |ddv_scf|^2 =  6.286E-18

      iter #  26 total cpu time :  1698.3 secs   av.it.:  17.5
      thresh= 2.507E-10 alpha_mix =  0.700 |ddv_scf|^2 =  5.579E-18

      iter #  27 total cpu time :  1707.0 secs   av.it.:  17.4
      thresh= 2.362E-10 alpha_mix =  0.700 |ddv_scf|^2 =  4.681E-19

     End of self-consistent calculation

     Convergence has been achieved 


     Representation #   3 mode #   3

     Self-consistent Calculation

      iter #   1 total cpu time :  1715.2 secs   av.it.:  12.1
      thresh= 1.000E-02 alpha_mix =  0.700 |ddv_scf|^2 =  5.543E-05

      iter #   2 total cpu time :  1724.1 secs   av.it.:  18.5
      thresh= 7.445E-04 alpha_mix =  0.700 |ddv_scf|^2 =  9.404E-04

      iter #   3 total cpu time :  1731.9 secs   av.it.:  16.2
      thresh= 3.067E-03 alpha_mix =  0.700 |ddv_scf|^2 =  2.129E-05

      iter #   4 total cpu time :  1739.9 secs   av.it.:  17.3
      thresh= 4.614E-04 alpha_mix =  0.700 |ddv_scf|^2 =  1.196E-06

      iter #   5 total cpu time :  1748.1 secs   av.it.:  18.0
      thresh= 1.094E-04 alpha_mix =  0.700 |ddv_scf|^2 =  9.824E-08

      iter #   6 total cpu time :  1756.5 secs   av.it.:  17.9
      thresh= 3.134E-05 alpha_mix =  0.700 |ddv_scf|^2 =  3.325E-08

      iter #   7 total cpu time :  1764.8 secs   av.it.:  17.6
      thresh= 1.823E-05 alpha_mix =  0.700 |ddv_scf|^2 =  4.976E-09

      iter #   8 total cpu time :  1772.7 secs   av.it.:  17.2
      thresh= 7.054E-06 alpha_mix =  0.700 |ddv_scf|^2 =  2.510E-10

      iter #   9 total cpu time :  1781.1 secs   av.it.:  18.4
      thresh= 1.584E-06 alpha_mix =  0.700 |ddv_scf|^2 =  4.453E-10

      iter #  10 total cpu time :  1789.3 secs   av.it.:  16.5
      thresh= 2.110E-06 alpha_mix =  0.700 |ddv_scf|^2 =  2.012E-11

      iter #  11 total cpu time :  1797.5 secs   av.it.:  17.7
      thresh= 4.486E-07 alpha_mix =  0.700 |ddv_scf|^2 =  9.073E-13

      iter #  12 total cpu time :  1805.9 secs   av.it.:  18.3
      thresh= 9.525E-08 alpha_mix =  0.700 |ddv_scf|^2 =  7.449E-13

      iter #  13 total cpu time :  1814.2 secs   av.it.:  18.0
      thresh= 8.631E-08 alpha_mix =  0.700 |ddv_scf|^2 =  7.473E-13

      iter #  14 total cpu time :  1822.5 secs   av.it.:  18.0
      thresh= 8.645E-08 alpha_mix =  0.700 |ddv_scf|^2 =  3.102E-13

      iter #  15 total cpu time :  1830.6 secs   av.it.:  18.0
      thresh= 5.570E-08 alpha_mix =  0.700 |ddv_scf|^2 =  1.941E-13

      iter #  16 total cpu time :  1838.7 secs   av.it.:  17.2
      thresh= 4.405E-08 alpha_mix =  0.700 |ddv_scf|^2 =  5.353E-15

      iter #  17 total cpu time :  1847.3 secs   av.it.:  19.1
      thresh= 7.317E-09 alpha_mix =  0.700 |ddv_scf|^2 =  3.584E-14

      iter #  18 total cpu time :  1855.4 secs   av.it.:  17.1
      thresh= 1.893E-08 alpha_mix =  0.700 |ddv_scf|^2 =  6.243E-16

      iter #  19 total cpu time :  1864.0 secs   av.it.:  18.5
      thresh= 2.499E-09 alpha_mix =  0.700 |ddv_scf|^2 =  2.238E-15

      iter #  20 total cpu time :  1872.1 secs   av.it.:  17.6
      thresh= 4.731E-09 alpha_mix =  0.700 |ddv_scf|^2 =  5.645E-16

      iter #  21 total cpu time :  1880.2 secs   av.it.:  17.6
      thresh= 2.376E-09 alpha_mix =  0.700 |ddv_scf|^2 =  1.604E-16

      iter #  22 total cpu time :  1888.6 secs   av.it.:  18.3
      thresh= 1.266E-09 alpha_mix =  0.700 |ddv_scf|^2 =  1.365E-16

      iter #  23 total cpu time :  1896.8 secs   av.it.:  17.6
      thresh= 1.168E-09 alpha_mix =  0.700 |ddv_scf|^2 =  5.639E-17

      iter #  24 total cpu time :  1905.3 secs   av.it.:  17.6
      thresh= 7.509E-10 alpha_mix =  0.700 |ddv_scf|^2 =  1.422E-17

      iter #  25 total cpu time :  1913.4 secs   av.it.:  17.8
      thresh= 3.771E-10 alpha_mix =  0.700 |ddv_scf|^2 =  4.218E-18

      iter #  26 total cpu time :  1921.6 secs   av.it.:  17.7
      thresh= 2.054E-10 alpha_mix =  0.700 |ddv_scf|^2 =  4.128E-18

      iter #  27 total cpu time :  1929.7 secs   av.it.:  17.9
      thresh= 2.032E-10 alpha_mix =  0.700 |ddv_scf|^2 =  2.574E-18

      iter #  28 total cpu time :  1937.7 secs   av.it.:  17.4
      thresh= 1.604E-10 alpha_mix =  0.700 |ddv_scf|^2 =  5.878E-19

     End of self-consistent calculation

     Convergence has been achieved 


     Representation #   4 modes #   4   5

     Self-consistent Calculation

      iter #   1 total cpu time :  1951.2 secs   av.it.:  11.6
      thresh= 1.000E-02 alpha_mix =  0.700 |ddv_scf|^2 =  2.313E-07

      iter #   2 total cpu time :  1968.3 secs   av.it.:  20.1
      thresh= 4.809E-05 alpha_mix =  0.700 |ddv_scf|^2 =  1.394E-08

      iter #   3 total cpu time :  1985.1 secs   av.it.:  19.9
      thresh= 1.181E-05 alpha_mix =  0.700 |ddv_scf|^2 =  2.283E-10

      iter #   4 total cpu time :  2002.0 secs   av.it.:  19.7
      thresh= 1.511E-06 alpha_mix =  0.700 |ddv_scf|^2 =  2.030E-12

      iter #   5 total cpu time :  2019.0 secs   av.it.:  20.0
      thresh= 1.425E-07 alpha_mix =  0.700 |ddv_scf|^2 =  1.358E-13

      iter #   6 total cpu time :  2035.8 secs   av.it.:  19.6
      thresh= 3.685E-08 alpha_mix =  0.700 |ddv_scf|^2 =  9.978E-16

      iter #   7 total cpu time :  2052.3 secs   av.it.:  19.3
      thresh= 3.159E-09 alpha_mix =  0.700 |ddv_scf|^2 =  6.816E-17

      iter #   8 total cpu time :  2069.2 secs   av.it.:  20.0
      thresh= 8.256E-10 alpha_mix =  0.700 |ddv_scf|^2 =  6.989E-19

     End of self-consistent calculation

     Convergence has been achieved 


     Representation #   5 modes #   6   7

     Self-consistent Calculation

      iter #   1 total cpu time :  2083.3 secs   av.it.:  11.6
      thresh= 1.000E-02 alpha_mix =  0.700 |ddv_scf|^2 =  2.313E-07

      iter #   2 total cpu time :  2100.5 secs   av.it.:  20.1
      thresh= 4.809E-05 alpha_mix =  0.700 |ddv_scf|^2 =  1.395E-08

      iter #   3 total cpu time :  2117.5 secs   av.it.:  20.0
      thresh= 1.181E-05 alpha_mix =  0.700 |ddv_scf|^2 =  2.283E-10

      iter #   4 total cpu time :  2134.5 secs   av.it.:  19.8
      thresh= 1.511E-06 alpha_mix =  0.700 |ddv_scf|^2 =  2.031E-12

      iter #   5 total cpu time :  2152.3 secs   av.it.:  20.0
      thresh= 1.425E-07 alpha_mix =  0.700 |ddv_scf|^2 =  1.358E-13

      iter #   6 total cpu time :  2169.1 secs   av.it.:  19.6
      thresh= 3.685E-08 alpha_mix =  0.700 |ddv_scf|^2 =  9.989E-16

      iter #   7 total cpu time :  2186.1 secs   av.it.:  19.4
      thresh= 3.161E-09 alpha_mix =  0.700 |ddv_scf|^2 =  6.820E-17

      iter #   8 total cpu time :  2203.0 secs   av.it.:  20.0
      thresh= 8.259E-10 alpha_mix =  0.700 |ddv_scf|^2 =  7.007E-19

     End of self-consistent calculation

     Convergence has been achieved 


     Representation #   6 modes #   8   9

     Self-consistent Calculation

      iter #   1 total cpu time :  2217.4 secs   av.it.:  12.0
      thresh= 1.000E-02 alpha_mix =  0.700 |ddv_scf|^2 =  2.667E-07

      iter #   2 total cpu time :  2234.4 secs   av.it.:  19.5
      thresh= 5.164E-05 alpha_mix =  0.700 |ddv_scf|^2 =  4.039E-08

      iter #   3 total cpu time :  2251.2 secs   av.it.:  19.1
      thresh= 2.010E-05 alpha_mix =  0.700 |ddv_scf|^2 =  3.522E-11

      iter #   4 total cpu time :  2267.8 secs   av.it.:  19.2
      thresh= 5.935E-07 alpha_mix =  0.700 |ddv_scf|^2 =  1.195E-12

      iter #   5 total cpu time :  2284.1 secs   av.it.:  19.3
      thresh= 1.093E-07 alpha_mix =  0.700 |ddv_scf|^2 =  3.453E-14

      iter #   6 total cpu time :  2300.4 secs   av.it.:  19.1
      thresh= 1.858E-08 alpha_mix =  0.700 |ddv_scf|^2 =  1.099E-15

      iter #   7 total cpu time :  2317.1 secs   av.it.:  19.3
      thresh= 3.315E-09 alpha_mix =  0.700 |ddv_scf|^2 =  2.392E-17

      iter #   8 total cpu time :  2334.4 secs   av.it.:  19.1
      thresh= 4.891E-10 alpha_mix =  0.700 |ddv_scf|^2 =  1.207E-18

      iter #   9 total cpu time :  2351.0 secs   av.it.:  19.1
      thresh= 1.099E-10 alpha_mix =  0.700 |ddv_scf|^2 =  5.903E-20

     End of self-consistent calculation

     Convergence has been achieved 
 
     Number of q in the star =    8
     List of q in the star:
          1  -0.333333333   0.333333333  -0.333333333
          2   0.333333333   0.333333333   0.333333333
          3  -0.333333333  -0.333333333  -0.333333333
          4   0.333333333  -0.333333333   0.333333333
          5   0.333333333  -0.333333333  -0.333333333
          6   0.333333333   0.333333333  -0.333333333
          7  -0.333333333  -0.333333333   0.333333333
          8  -0.333333333   0.333333333   0.333333333

     Diagonalizing the dynamical matrix

     q = (   -0.333333333   0.333333333  -0.333333333 ) 

 **************************************************************************
     freq (    1) =       2.959933 [THz] =      98.732738 [cm-1]
     freq (    2) =       2.959933 [THz] =      98.732738 [cm-1]
     freq (    3) =       5.115526 [THz] =     170.635594 [cm-1]
     freq (    4) =       8.752049 [THz] =     291.936921 [cm-1]
     freq (    5) =       8.752049 [THz] =     291.936921 [cm-1]
     freq (    6) =      11.417557 [THz] =     380.848711 [cm-1]
     freq (    7) =      11.417557 [THz] =     380.848711 [cm-1]
     freq (    8) =      11.687996 [THz] =     389.869583 [cm-1]
     freq (    9) =      14.805971 [THz] =     493.874019 [cm-1]
 **************************************************************************

     Mode symmetry, C_3v (3m)   point group:

     freq (   1-   2) =         98.7  [cm-1]   --> E    L_3           
     freq (   3-   3) =        170.6  [cm-1]   --> A_1  L_1           
     freq (   4-   5) =        291.9  [cm-1]   --> E    L_3           
     freq (   6-   7) =        380.8  [cm-1]   --> E    L_3           
     freq (   8-   8) =        389.9  [cm-1]   --> A_1  L_1           
     freq (   9-   9) =        493.9  [cm-1]   --> A_1  L_1           

     Calculation of q =    0.5000000  -0.5000000   0.5000000
 
     Parallelization info
     --------------------
     sticks:   dense  smooth     PW     G-vecs:    dense   smooth      PW
     Min         292     116     37                10539     2656     500
     Max         293     120     38                10541     2657     504
     Sum        2929    1165    379               105395    26565    5029
 
     Using Slab Decomposition
 

     Title: 
     default                                                                    


     bravais-lattice index     =            2
     lattice parameter (alat)  =      10.3388  a.u.
     unit-cell volume          =     276.2768 (a.u.)^3
     number of atoms/cell      =            3
     number of atomic types    =            2
     number of electrons       =        24.00
     number of Kohn-Sham states=           19
     kinetic-energy cutoff     =      80.0000  Ry
     charge density cutoff     =     800.0000  Ry
     Exchange-correlation= PBE
                           (   1   4   3   4   0   0   0)

     celldm(1)=  10.338753  celldm(2)=   0.000000  celldm(3)=   0.000000
     celldm(4)=   0.000000  celldm(5)=   0.000000  celldm(6)=   0.000000

     crystal axes: (cart. coord. in units of alat)
               a(1) = (  -0.500000   0.000000   0.500000 )  
               a(2) = (   0.000000   0.500000   0.500000 )  
               a(3) = (  -0.500000   0.500000   0.000000 )  

     reciprocal axes: (cart. coord. in units 2 pi/alat)
               b(1) = ( -1.000000 -1.000000  1.000000 )  
               b(2) = (  1.000000  1.000000  1.000000 )  
               b(3) = ( -1.000000  1.000000 -1.000000 )  


     PseudoPot. # 1 for Ce read from file:
     ./Ce.paw.z_12.atompaw.wentzcovitch.v1.2.upf
     MD5 check sum: 2241420ff980c77e0c917a2dc8a7e08e
     Pseudo is Projector augmented-wave + core cor, Zval = 12.0
     Generated using ATOMPAW code
     Shape of augmentation charge: BESSEL
     Using radial grid of 1102 points,  8 beta functions with: 
                l(1) =   0
                l(2) =   0
                l(3) =   1
                l(4) =   1
                l(5) =   2
                l(6) =   2
                l(7) =   3
                l(8) =   3
     Q(r) pseudized with 0 coefficients 


     PseudoPot. # 2 for O  read from file:
     ./O.pbe-n-kjpaw_psl.0.1.UPF
     MD5 check sum: 0234752ac141de4415c5fc33072bef88
     Pseudo is Projector augmented-wave + core cor, Zval =  6.0
     Generated using "atomic" code by A. Dal Corso  v.5.0.99 svn rev. 10869
     Shape of augmentation charge: BESSEL
     Using radial grid of 1095 points,  4 beta functions with: 
                l(1) =   0
                l(2) =   0
                l(3) =   1
                l(4) =   1
     Q(r) pseudized with 0 coefficients 


     atomic species   valence    mass     pseudopotential
        Ce            12.00   140.11600     Ce( 1.00)
        O              6.00    15.99940     O ( 1.00)

     48 Sym. Ops., with inversion, found



   Cartesian axes

     site n.     atom                  positions (alat units)
         1           Ce  tau(   1) = (   0.0000000   0.0000000   0.0000000  )
         2           O   tau(   2) = (  -0.2500000   0.2500000   0.2500000  )
         3           O   tau(   3) = (  -0.7500000   0.7500000   0.7500000  )

     number of k points=   378

     Number of k-points >= 100: set verbosity='high' to print them.

     Dense  grid:   105395 G-vectors     FFT dimensions: (  72,  72,  72)

     Smooth grid:    26565 G-vectors     FFT dimensions: (  45,  45,  45)

     Estimated max dynamical RAM per process >      38.40 MB

     Estimated total dynamical RAM >       1.50 GB

     The potential is recalculated from file :
     ./_ph0/CeO.q_4/CeO.save/charge-density

     Starting wfcs are   40 atomic wfcs
     Checking if some PAW data can be deallocated... 

     Band Structure Calculation
     Davidson diagonalization with overlap

     ethr =  4.17E-11,  avg # of iterations = 14.1

     total cpu time spent up to now is       48.9 secs

     End of band structure calculation

     Number of k-points >= 100: set verbosity='high' to print the bands.

     highest occupied, lowest unoccupied level (ev):    10.4407   12.2937

     Writing config to output data dir ./_ph0/CeO.q_4/CeO.save/

     default                                                                    

     bravais-lattice index     =            2
     lattice parameter (alat)  =      10.3388  a.u.
     unit-cell volume          =     276.2768 (a.u.)^3
     number of atoms/cell      =            3
     number of atomic types    =            2
     kinetic-energy cut-off    =      80.0000  Ry
     charge density cut-off    =     800.0000  Ry
     convergence threshold     =      1.0E-18
     beta                      =       0.7000
     number of iterations used =            4
     Exchange-correlation= PBE
                           (   1   4   3   4   0   0   0)


     celldm(1)=   10.33875  celldm(2)=    0.00000  celldm(3)=    0.00000
     celldm(4)=    0.00000  celldm(5)=    0.00000  celldm(6)=    0.00000

     crystal axes: (cart. coord. in units of alat)
               a(1) = ( -0.5000  0.0000  0.5000 )  
               a(2) = (  0.0000  0.5000  0.5000 )  
               a(3) = ( -0.5000  0.5000  0.0000 )  

     reciprocal axes: (cart. coord. in units 2 pi/alat)
               b(1) = ( -1.0000 -1.0000  1.0000 )  
               b(2) = (  1.0000  1.0000  1.0000 )  
               b(3) = ( -1.0000  1.0000 -1.0000 )  


     Atoms inside the unit cell: 

     Cartesian axes

     site n.  atom      mass           positions (alat units)
        1     Ce 140.1160   tau(    1) = (    0.00000    0.00000    0.00000  )
        2     O   15.9994   tau(    2) = (   -0.25000    0.25000    0.25000  )
        3     O   15.9994   tau(    3) = (   -0.75000    0.75000    0.75000  )

     Computing dynamical matrix for 
                    q = (   0.5000000  -0.5000000   0.5000000 )
 
     13 Sym.Ops. (with q -> -q+G )


     G cutoff = 2166.0405  (  10540 G-vectors)     FFT grid: ( 72, 72, 72)
     G cutoff =  866.4162  (   2657 G-vectors)  smooth grid: ( 45, 45, 45)
     number of k points=   378

     PseudoPot. # 1 for Ce read from file:
     ./Ce.paw.z_12.atompaw.wentzcovitch.v1.2.upf
     MD5 check sum: 2241420ff980c77e0c917a2dc8a7e08e
     Pseudo is Projector augmented-wave + core cor, Zval = 12.0
     Generated using ATOMPAW code
     Shape of augmentation charge: BESSEL
     Using radial grid of 1102 points,  8 beta functions with: 
                l(1) =   0
                l(2) =   0
                l(3) =   1
                l(4) =   1
                l(5) =   2
                l(6) =   2
                l(7) =   3
                l(8) =   3
     Q(r) pseudized with 0 coefficients 


     PseudoPot. # 2 for O  read from file:
     ./O.pbe-n-kjpaw_psl.0.1.UPF
     MD5 check sum: 0234752ac141de4415c5fc33072bef88
     Pseudo is Projector augmented-wave + core cor, Zval =  6.0
     Generated using "atomic" code by A. Dal Corso  v.5.0.99 svn rev. 10869
     Shape of augmentation charge: BESSEL
     Using radial grid of 1095 points,  4 beta functions with: 
                l(1) =   0
                l(2) =   0
                l(3) =   1
                l(4) =   1
     Q(r) pseudized with 0 coefficients 


     Mode symmetry, D_3d (-3m)  point group:


     Atomic displacements:
     There are    6 irreducible representations

     Representation     1      1 modes -  To be done

     Representation     2      2 modes -  To be done

     Representation     3      1 modes -  To be done

     Representation     4      1 modes -  To be done

     Representation     5      2 modes -  To be done

     Representation     6      2 modes -  To be done



     Alpha used in Ewald sum =   2.8000
     PHONON       :  35m55.33s CPU  39m29.45s WALL



     Representation #   1 mode #   1

     Self-consistent Calculation

      iter #   1 total cpu time :  2373.2 secs   av.it.:  11.4
      thresh= 1.000E-02 alpha_mix =  0.700 |ddv_scf|^2 =  3.126E-05

      iter #   2 total cpu time :  2378.1 secs   av.it.:  18.4
      thresh= 5.591E-04 alpha_mix =  0.700 |ddv_scf|^2 =  5.593E-04

      iter #   3 total cpu time :  2382.8 secs   av.it.:  16.2
      thresh= 2.365E-03 alpha_mix =  0.700 |ddv_scf|^2 =  2.012E-05

      iter #   4 total cpu time :  2387.8 secs   av.it.:  16.9
      thresh= 4.486E-04 alpha_mix =  0.700 |ddv_scf|^2 =  9.827E-07

      iter #   5 total cpu time :  2393.1 secs   av.it.:  17.4
      thresh= 9.913E-05 alpha_mix =  0.700 |ddv_scf|^2 =  9.407E-08

      iter #   6 total cpu time :  2398.2 secs   av.it.:  16.5
      thresh= 3.067E-05 alpha_mix =  0.700 |ddv_scf|^2 =  4.570E-11

      iter #   7 total cpu time :  2403.2 secs   av.it.:  17.3
      thresh= 6.760E-07 alpha_mix =  0.700 |ddv_scf|^2 =  5.008E-13

      iter #   8 total cpu time :  2408.8 secs   av.it.:  18.3
      thresh= 7.076E-08 alpha_mix =  0.700 |ddv_scf|^2 =  1.059E-13

      iter #   9 total cpu time :  2413.7 secs   av.it.:  16.7
      thresh= 3.255E-08 alpha_mix =  0.700 |ddv_scf|^2 =  5.421E-15

      iter #  10 total cpu time :  2418.6 secs   av.it.:  16.6
      thresh= 7.363E-09 alpha_mix =  0.700 |ddv_scf|^2 =  6.361E-17

      iter #  11 total cpu time :  2423.9 secs   av.it.:  16.9
      thresh= 7.976E-10 alpha_mix =  0.700 |ddv_scf|^2 =  4.629E-18

      iter #  12 total cpu time :  2428.8 secs   av.it.:  16.8
      thresh= 2.152E-10 alpha_mix =  0.700 |ddv_scf|^2 =  1.764E-19

     End of self-consistent calculation

     Convergence has been achieved 


     Representation #   2 modes #   2   3

     Self-consistent Calculation

      iter #   1 total cpu time :  2437.1 secs   av.it.:  11.3
      thresh= 1.000E-02 alpha_mix =  0.700 |ddv_scf|^2 =  2.226E-07

      iter #   2 total cpu time :  2446.9 secs   av.it.:  19.7
      thresh= 4.718E-05 alpha_mix =  0.700 |ddv_scf|^2 =  6.379E-09

      iter #   3 total cpu time :  2456.7 secs   av.it.:  19.6
      thresh= 7.987E-06 alpha_mix =  0.700 |ddv_scf|^2 =  8.661E-12

      iter #   4 total cpu time :  2466.5 secs   av.it.:  19.5
      thresh= 2.943E-07 alpha_mix =  0.700 |ddv_scf|^2 =  5.557E-13

      iter #   5 total cpu time :  2476.2 secs   av.it.:  19.2
      thresh= 7.454E-08 alpha_mix =  0.700 |ddv_scf|^2 =  3.095E-15

      iter #   6 total cpu time :  2486.6 secs   av.it.:  19.5
      thresh= 5.563E-09 alpha_mix =  0.700 |ddv_scf|^2 =  3.595E-17

      iter #   7 total cpu time :  2496.9 secs   av.it.:  19.0
      thresh= 5.996E-10 alpha_mix =  0.700 |ddv_scf|^2 =  2.222E-18

      iter #   8 total cpu time :  2507.1 secs   av.it.:  19.1
      thresh= 1.491E-10 alpha_mix =  0.700 |ddv_scf|^2 =  3.398E-20

     End of self-consistent calculation

     Convergence has been achieved 


     Representation #   3 mode #   4

     Self-consistent Calculation

      iter #   1 total cpu time :  2512.5 secs   av.it.:  12.8
      thresh= 1.000E-02 alpha_mix =  0.700 |ddv_scf|^2 =  3.721E-05

      iter #   2 total cpu time :  2517.9 secs   av.it.:  18.4
      thresh= 6.100E-04 alpha_mix =  0.700 |ddv_scf|^2 =  1.857E-04

      iter #   3 total cpu time :  2522.8 secs   av.it.:  16.7
      thresh= 1.363E-03 alpha_mix =  0.700 |ddv_scf|^2 =  5.025E-06

      iter #   4 total cpu time :  2528.1 secs   av.it.:  17.3
      thresh= 2.242E-04 alpha_mix =  0.700 |ddv_scf|^2 =  9.949E-10

      iter #   5 total cpu time :  2533.2 secs   av.it.:  17.7
      thresh= 3.154E-06 alpha_mix =  0.700 |ddv_scf|^2 =  6.976E-12

      iter #   6 total cpu time :  2538.9 secs   av.it.:  18.5
      thresh= 2.641E-07 alpha_mix =  0.700 |ddv_scf|^2 =  9.261E-14

      iter #   7 total cpu time :  2544.0 secs   av.it.:  17.7
      thresh= 3.043E-08 alpha_mix =  0.700 |ddv_scf|^2 =  8.936E-15

      iter #   8 total cpu time :  2549.4 secs   av.it.:  18.4
      thresh= 9.453E-09 alpha_mix =  0.700 |ddv_scf|^2 =  1.712E-16

      iter #   9 total cpu time :  2554.8 secs   av.it.:  17.9
      thresh= 1.309E-09 alpha_mix =  0.700 |ddv_scf|^2 =  3.398E-18

      iter #  10 total cpu time :  2559.9 secs   av.it.:  17.9
      thresh= 1.843E-10 alpha_mix =  0.700 |ddv_scf|^2 =  6.924E-19

     End of self-consistent calculation

     Convergence has been achieved 


     Representation #   4 mode #   5

     Self-consistent Calculation

      iter #   1 total cpu time :  2564.7 secs   av.it.:  11.6
      thresh= 1.000E-02 alpha_mix =  0.700 |ddv_scf|^2 =  1.329E-05

      iter #   2 total cpu time :  2570.0 secs   av.it.:  18.2
      thresh= 3.645E-04 alpha_mix =  0.700 |ddv_scf|^2 =  5.228E-05

      iter #   3 total cpu time :  2575.1 secs   av.it.:  16.9
      thresh= 7.230E-04 alpha_mix =  0.700 |ddv_scf|^2 =  2.620E-06

      iter #   4 total cpu time :  2580.1 secs   av.it.:  17.3
      thresh= 1.619E-04 alpha_mix =  0.700 |ddv_scf|^2 =  6.144E-08

      iter #   5 total cpu time :  2585.0 secs   av.it.:  17.2
      thresh= 2.479E-05 alpha_mix =  0.700 |ddv_scf|^2 =  1.134E-10

      iter #   6 total cpu time :  2590.0 secs   av.it.:  17.4
      thresh= 1.065E-06 alpha_mix =  0.700 |ddv_scf|^2 =  1.315E-12

      iter #   7 total cpu time :  2595.0 secs   av.it.:  17.1
      thresh= 1.147E-07 alpha_mix =  0.700 |ddv_scf|^2 =  1.273E-13

      iter #   8 total cpu time :  2600.0 secs   av.it.:  16.9
      thresh= 3.568E-08 alpha_mix =  0.700 |ddv_scf|^2 =  5.022E-16

      iter #   9 total cpu time :  2605.1 secs   av.it.:  18.1
      thresh= 2.241E-09 alpha_mix =  0.700 |ddv_scf|^2 =  4.656E-18

      iter #  10 total cpu time :  2610.3 secs   av.it.:  17.3
      thresh= 2.158E-10 alpha_mix =  0.700 |ddv_scf|^2 =  1.598E-18

      iter #  11 total cpu time :  2615.5 secs   av.it.:  18.1
      thresh= 1.264E-10 alpha_mix =  0.700 |ddv_scf|^2 =  3.224E-19

     End of self-consistent calculation

     Convergence has been achieved 


     Representation #   5 modes #   6   7

     Self-consistent Calculation

      iter #   1 total cpu time :  2623.8 secs   av.it.:  11.5
      thresh= 1.000E-02 alpha_mix =  0.700 |ddv_scf|^2 =  2.541E-07

      iter #   2 total cpu time :  2634.2 secs   av.it.:  19.7
      thresh= 5.041E-05 alpha_mix =  0.700 |ddv_scf|^2 =  2.495E-08

      iter #   3 total cpu time :  2644.5 secs   av.it.:  19.5
      thresh= 1.579E-05 alpha_mix =  0.700 |ddv_scf|^2 =  2.260E-10

      iter #   4 total cpu time :  2654.5 secs   av.it.:  19.6
      thresh= 1.503E-06 alpha_mix =  0.700 |ddv_scf|^2 =  1.135E-12

      iter #   5 total cpu time :  2664.4 secs   av.it.:  19.5
      thresh= 1.065E-07 alpha_mix =  0.700 |ddv_scf|^2 =  6.757E-15

      iter #   6 total cpu time :  2674.0 secs   av.it.:  19.2
      thresh= 8.220E-09 alpha_mix =  0.700 |ddv_scf|^2 =  1.072E-16

      iter #   7 total cpu time :  2683.7 secs   av.it.:  19.4
      thresh= 1.035E-09 alpha_mix =  0.700 |ddv_scf|^2 =  3.021E-18

      iter #   8 total cpu time :  2693.7 secs   av.it.:  19.6
      thresh= 1.738E-10 alpha_mix =  0.700 |ddv_scf|^2 =  6.924E-20

     End of self-consistent calculation

     Convergence has been achieved 


     Representation #   6 modes #   8   9

     Self-consistent Calculation

      iter #   1 total cpu time :  2702.7 secs   av.it.:  11.7
      thresh= 1.000E-02 alpha_mix =  0.700 |ddv_scf|^2 =  2.837E-07

      iter #   2 total cpu time :  2713.4 secs   av.it.:  19.3
      thresh= 5.326E-05 alpha_mix =  0.700 |ddv_scf|^2 =  4.595E-08

      iter #   3 total cpu time :  2723.1 secs   av.it.:  19.0
      thresh= 2.144E-05 alpha_mix =  0.700 |ddv_scf|^2 =  3.289E-11
[...]
      thresh= 6.275E-10 alpha_mix =  0.700 |ddv_scf|^2 =  1.824E-17

      iter #  13 total cpu time : 25846.8 secs   av.it.:  17.5
      thresh= 4.270E-10 alpha_mix =  0.700 |ddv_scf|^2 =  4.013E-20

     End of self-consistent calculation

     Convergence has been achieved 


     Representation #   3 mode #   3

     Self-consistent Calculation

      iter #   1 total cpu time : 25857.2 secs   av.it.:  11.9
      thresh= 1.000E-02 alpha_mix =  0.700 |ddv_scf|^2 =  3.170E-06

      iter #   2 total cpu time : 25868.3 secs   av.it.:  18.3
      thresh= 1.780E-04 alpha_mix =  0.700 |ddv_scf|^2 =  2.434E-06

      iter #   3 total cpu time : 25879.6 secs   av.it.:  18.1
      thresh= 1.560E-04 alpha_mix =  0.700 |ddv_scf|^2 =  5.083E-06

      iter #   4 total cpu time : 25890.2 secs   av.it.:  16.4
      thresh= 2.255E-04 alpha_mix =  0.700 |ddv_scf|^2 =  1.535E-08

      iter #   5 total cpu time : 25900.9 secs   av.it.:  17.3
      thresh= 1.239E-05 alpha_mix =  0.700 |ddv_scf|^2 =  1.122E-09

      iter #   6 total cpu time : 25911.6 secs   av.it.:  17.1
      thresh= 3.349E-06 alpha_mix =  0.700 |ddv_scf|^2 =  5.205E-11

      iter #   7 total cpu time : 25922.2 secs   av.it.:  17.2
      thresh= 7.215E-07 alpha_mix =  0.700 |ddv_scf|^2 =  1.086E-12

      iter #   8 total cpu time : 25932.9 secs   av.it.:  17.1
      thresh= 1.042E-07 alpha_mix =  0.700 |ddv_scf|^2 =  3.829E-14

      iter #   9 total cpu time : 25943.8 secs   av.it.:  17.9
      thresh= 1.957E-08 alpha_mix =  0.700 |ddv_scf|^2 =  1.007E-13

      iter #  10 total cpu time : 25954.3 secs   av.it.:  16.7
      thresh= 3.174E-08 alpha_mix =  0.700 |ddv_scf|^2 =  2.260E-16

      iter #  11 total cpu time : 25965.7 secs   av.it.:  18.4
      thresh= 1.503E-09 alpha_mix =  0.700 |ddv_scf|^2 =  4.060E-17

      iter #  12 total cpu time : 25977.1 secs   av.it.:  18.0
      thresh= 6.372E-10 alpha_mix =  0.700 |ddv_scf|^2 =  1.815E-18

      iter #  13 total cpu time : 25988.2 secs   av.it.:  18.1
      thresh= 1.347E-10 alpha_mix =  0.700 |ddv_scf|^2 =  6.041E-20

     End of self-consistent calculation

     Convergence has been achieved 


     Representation #   4 mode #   4

     Self-consistent Calculation

      iter #   1 total cpu time : 25998.2 secs   av.it.:  10.5
      thresh= 1.000E-02 alpha_mix =  0.700 |ddv_scf|^2 =  3.949E-07

      iter #   2 total cpu time : 26009.5 secs   av.it.:  18.0
      thresh= 6.284E-05 alpha_mix =  0.700 |ddv_scf|^2 =  1.448E-09

      iter #   3 total cpu time : 26020.7 secs   av.it.:  18.5
      thresh= 3.806E-06 alpha_mix =  0.700 |ddv_scf|^2 =  2.297E-11

      iter #   4 total cpu time : 26031.9 secs   av.it.:  17.9
      thresh= 4.793E-07 alpha_mix =  0.700 |ddv_scf|^2 =  1.365E-12

      iter #   5 total cpu time : 26043.1 secs   av.it.:  17.8
      thresh= 1.168E-07 alpha_mix =  0.700 |ddv_scf|^2 =  1.375E-14

      iter #   6 total cpu time : 26054.4 secs   av.it.:  17.5
      thresh= 1.173E-08 alpha_mix =  0.700 |ddv_scf|^2 =  3.396E-16

      iter #   7 total cpu time : 26065.5 secs   av.it.:  18.1
      thresh= 1.843E-09 alpha_mix =  0.700 |ddv_scf|^2 =  5.703E-18

      iter #   8 total cpu time : 26076.0 secs   av.it.:  17.1
      thresh= 2.388E-10 alpha_mix =  0.700 |ddv_scf|^2 =  6.927E-20

     End of self-consistent calculation

     Convergence has been achieved 


     Representation #   5 mode #   5

     Self-consistent Calculation

      iter #   1 total cpu time : 26086.3 secs   av.it.:  10.5
      thresh= 1.000E-02 alpha_mix =  0.700 |ddv_scf|^2 =  4.206E-07

      iter #   2 total cpu time : 26097.3 secs   av.it.:  18.0
      thresh= 6.485E-05 alpha_mix =  0.700 |ddv_scf|^2 =  2.086E-09

      iter #   3 total cpu time : 26108.7 secs   av.it.:  18.4
      thresh= 4.568E-06 alpha_mix =  0.700 |ddv_scf|^2 =  2.436E-11

      iter #   4 total cpu time : 26119.8 secs   av.it.:  18.0
      thresh= 4.935E-07 alpha_mix =  0.700 |ddv_scf|^2 =  1.589E-12

      iter #   5 total cpu time : 26130.7 secs   av.it.:  17.7
      thresh= 1.261E-07 alpha_mix =  0.700 |ddv_scf|^2 =  1.320E-14

      iter #   6 total cpu time : 26141.8 secs   av.it.:  17.6
      thresh= 1.149E-08 alpha_mix =  0.700 |ddv_scf|^2 =  3.421E-16

      iter #   7 total cpu time : 26153.0 secs   av.it.:  18.1
      thresh= 1.850E-09 alpha_mix =  0.700 |ddv_scf|^2 =  5.391E-18

      iter #   8 total cpu time : 26163.7 secs   av.it.:  16.9
      thresh= 2.322E-10 alpha_mix =  0.700 |ddv_scf|^2 =  1.340E-19

     End of self-consistent calculation

     Convergence has been achieved 


     Representation #   6 mode #   6

     Self-consistent Calculation

      iter #   1 total cpu time : 26173.1 secs   av.it.:  11.1
      thresh= 1.000E-02 alpha_mix =  0.700 |ddv_scf|^2 =  2.604E-06

      iter #   2 total cpu time : 26184.3 secs   av.it.:  18.1
      thresh= 1.614E-04 alpha_mix =  0.700 |ddv_scf|^2 =  3.092E-06

      iter #   3 total cpu time : 26195.5 secs   av.it.:  17.6
      thresh= 1.759E-04 alpha_mix =  0.700 |ddv_scf|^2 =  1.149E-06

      iter #   4 total cpu time : 26206.6 secs   av.it.:  17.3
      thresh= 1.072E-04 alpha_mix =  0.700 |ddv_scf|^2 =  1.344E-08

      iter #   5 total cpu time : 26217.6 secs   av.it.:  17.6
      thresh= 1.159E-05 alpha_mix =  0.700 |ddv_scf|^2 =  5.128E-12

      iter #   6 total cpu time : 26229.1 secs   av.it.:  18.6
      thresh= 2.264E-07 alpha_mix =  0.700 |ddv_scf|^2 =  2.074E-12

      iter #   7 total cpu time : 26240.1 secs   av.it.:  17.5
      thresh= 1.440E-07 alpha_mix =  0.700 |ddv_scf|^2 =  9.470E-14

      iter #   8 total cpu time : 26250.8 secs   av.it.:  17.2
      thresh= 3.077E-08 alpha_mix =  0.700 |ddv_scf|^2 =  8.190E-16

      iter #   9 total cpu time : 26262.1 secs   av.it.:  18.2
      thresh= 2.862E-09 alpha_mix =  0.700 |ddv_scf|^2 =  6.253E-17

      iter #  10 total cpu time : 26273.0 secs   av.it.:  17.4
      thresh= 7.908E-10 alpha_mix =  0.700 |ddv_scf|^2 =  2.121E-17

      iter #  11 total cpu time : 26284.0 secs   av.it.:  17.4
      thresh= 4.605E-10 alpha_mix =  0.700 |ddv_scf|^2 =  9.673E-19

     End of self-consistent calculation

     Convergence has been achieved 


     Representation #   7 mode #   7

     Self-consistent Calculation

      iter #   1 total cpu time : 26294.1 secs   av.it.:  12.0
      thresh= 1.000E-02 alpha_mix =  0.700 |ddv_scf|^2 =  5.062E-06

      iter #   2 total cpu time : 26305.8 secs   av.it.:  18.3
      thresh= 2.250E-04 alpha_mix =  0.700 |ddv_scf|^2 =  1.343E-05

      iter #   3 total cpu time : 26316.7 secs   av.it.:  17.3
      thresh= 3.665E-04 alpha_mix =  0.700 |ddv_scf|^2 =  1.640E-06

      iter #   4 total cpu time : 26327.3 secs   av.it.:  17.4
      thresh= 1.281E-04 alpha_mix =  0.700 |ddv_scf|^2 =  9.691E-11

      iter #   5 total cpu time : 26338.3 secs   av.it.:  18.3
      thresh= 9.844E-07 alpha_mix =  0.700 |ddv_scf|^2 =  6.347E-12

      iter #   6 total cpu time : 26349.5 secs   av.it.:  18.2
      thresh= 2.519E-07 alpha_mix =  0.700 |ddv_scf|^2 =  1.116E-13

      iter #   7 total cpu time : 26360.9 secs   av.it.:  18.4
      thresh= 3.340E-08 alpha_mix =  0.700 |ddv_scf|^2 =  2.077E-14

      iter #   8 total cpu time : 26372.3 secs   av.it.:  17.8
      thresh= 1.441E-08 alpha_mix =  0.700 |ddv_scf|^2 =  2.507E-16

      iter #   9 total cpu time : 26383.4 secs   av.it.:  17.8
      thresh= 1.583E-09 alpha_mix =  0.700 |ddv_scf|^2 =  6.041E-17

      iter #  10 total cpu time : 26394.9 secs   av.it.:  18.3
      thresh= 7.773E-10 alpha_mix =  0.700 |ddv_scf|^2 =  7.511E-17

      iter #  11 total cpu time : 26405.6 secs   av.it.:  17.4
      thresh= 8.667E-10 alpha_mix =  0.700 |ddv_scf|^2 =  2.909E-18

      iter #  12 total cpu time : 26416.6 secs   av.it.:  18.0
      thresh= 1.706E-10 alpha_mix =  0.700 |ddv_scf|^2 =  8.125E-20

     End of self-consistent calculation

     Convergence has been achieved 


     Representation #   8 mode #   8

     Self-consistent Calculation

      iter #   1 total cpu time : 26426.0 secs   av.it.:  11.0
      thresh= 1.000E-02 alpha_mix =  0.700 |ddv_scf|^2 =  1.728E-06

      iter #   2 total cpu time : 26437.1 secs   av.it.:  18.2
      thresh= 1.315E-04 alpha_mix =  0.700 |ddv_scf|^2 =  3.990E-06

      iter #   3 total cpu time : 26448.9 secs   av.it.:  17.2
      thresh= 1.998E-04 alpha_mix =  0.700 |ddv_scf|^2 =  7.020E-07

      iter #   4 total cpu time : 26459.6 secs   av.it.:  17.3
      thresh= 8.379E-05 alpha_mix =  0.700 |ddv_scf|^2 =  3.001E-08

      iter #   5 total cpu time : 26470.5 secs   av.it.:  17.3
      thresh= 1.732E-05 alpha_mix =  0.700 |ddv_scf|^2 =  6.647E-12

      iter #   6 total cpu time : 26481.8 secs   av.it.:  18.6
      thresh= 2.578E-07 alpha_mix =  0.700 |ddv_scf|^2 =  1.989E-12

      iter #   7 total cpu time : 26492.6 secs   av.it.:  17.5
      thresh= 1.410E-07 alpha_mix =  0.700 |ddv_scf|^2 =  7.589E-14

      iter #   8 total cpu time : 26503.7 secs   av.it.:  16.8
      thresh= 2.755E-08 alpha_mix =  0.700 |ddv_scf|^2 =  2.690E-15

      iter #   9 total cpu time : 26514.8 secs   av.it.:  17.6
      thresh= 5.186E-09 alpha_mix =  0.700 |ddv_scf|^2 =  6.195E-17

      iter #  10 total cpu time : 26525.6 secs   av.it.:  17.6
      thresh= 7.871E-10 alpha_mix =  0.700 |ddv_scf|^2 =  5.524E-17

      iter #  11 total cpu time : 26536.3 secs   av.it.:  17.3
      thresh= 7.433E-10 alpha_mix =  0.700 |ddv_scf|^2 =  5.766E-18

      iter #  12 total cpu time : 26547.0 secs   av.it.:  17.5
      thresh= 2.401E-10 alpha_mix =  0.700 |ddv_scf|^2 =  7.192E-20

     End of self-consistent calculation

     Convergence has been achieved 


     Representation #   9 mode #   9

     Self-consistent Calculation

      iter #   1 total cpu time : 26557.7 secs   av.it.:  12.3
      thresh= 1.000E-02 alpha_mix =  0.700 |ddv_scf|^2 =  1.381E-05

      iter #   2 total cpu time : 26568.9 secs   av.it.:  18.2
      thresh= 3.716E-04 alpha_mix =  0.700 |ddv_scf|^2 =  6.242E-05

      iter #   3 total cpu time : 26579.3 secs   av.it.:  17.0
      thresh= 7.901E-04 alpha_mix =  0.700 |ddv_scf|^2 =  2.637E-06

      iter #   4 total cpu time : 26590.1 secs   av.it.:  17.2
      thresh= 1.624E-04 alpha_mix =  0.700 |ddv_scf|^2 =  1.376E-10

      iter #   5 total cpu time : 26601.2 secs   av.it.:  18.3
      thresh= 1.173E-06 alpha_mix =  0.700 |ddv_scf|^2 =  5.481E-12

      iter #   6 total cpu time : 26612.2 secs   av.it.:  18.3
      thresh= 2.341E-07 alpha_mix =  0.700 |ddv_scf|^2 =  6.002E-14

      iter #   7 total cpu time : 26623.1 secs   av.it.:  17.8
      thresh= 2.450E-08 alpha_mix =  0.700 |ddv_scf|^2 =  1.416E-14

      iter #   8 total cpu time : 26634.3 secs   av.it.:  17.8
      thresh= 1.190E-08 alpha_mix =  0.700 |ddv_scf|^2 =  5.708E-16

      iter #   9 total cpu time : 26645.5 secs   av.it.:  16.9
      thresh= 2.389E-09 alpha_mix =  0.700 |ddv_scf|^2 =  2.688E-17

      iter #  10 total cpu time : 26656.5 secs   av.it.:  18.1
      thresh= 5.185E-10 alpha_mix =  0.700 |ddv_scf|^2 =  7.776E-18

      iter #  11 total cpu time : 26667.0 secs   av.it.:  17.1
      thresh= 2.789E-10 alpha_mix =  0.700 |ddv_scf|^2 =  4.121E-19

     End of self-consistent calculation

     Convergence has been achieved 
 
     Number of q in the star =   12
     List of q in the star:
          1  -0.333333333  -1.000000000   0.000000000
          2   0.000000000  -1.000000000  -0.333333333
          3   0.000000000  -1.000000000   0.333333333
          4   0.333333333  -1.000000000   0.000000000
          5  -1.000000000   0.000000000  -0.333333333
          6   1.000000000   0.000000000   0.333333333
          7   0.000000000   0.333333333   1.000000000
          8   0.000000000  -0.333333333  -1.000000000
          9  -1.000000000  -0.333333333   0.000000000
         10   1.000000000   0.333333333   0.000000000
         11  -0.333333333   0.000000000   1.000000000
         12   0.333333333   0.000000000   1.000000000

     Diagonalizing the dynamical matrix

     q = (   -0.333333333  -1.000000000   0.000000000 ) 

 **************************************************************************
     freq (    1) =       3.732144 [THz] =     124.490917 [cm-1]
     freq (    2) =       4.695654 [THz] =     156.630154 [cm-1]
     freq (    3) =       4.977783 [THz] =     166.040966 [cm-1]
     freq (    4) =       5.845401 [THz] =     194.981596 [cm-1]
     freq (    5) =       6.268734 [THz] =     209.102464 [cm-1]
     freq (    6) =       8.744907 [THz] =     291.698704 [cm-1]
     freq (    7) =      11.597235 [THz] =     386.842128 [cm-1]
     freq (    8) =      13.258463 [THz] =     442.254726 [cm-1]
     freq (    9) =      16.282752 [THz] =     543.134131 [cm-1]
 **************************************************************************

     Mode symmetry, C_2v (mm2)  point group:

     freq (   1-   1) =        124.5  [cm-1]   --> A_1  D_1  S_1      
     freq (   2-   2) =        156.6  [cm-1]   --> B_1  D_3  S_3      
     freq (   3-   3) =        166.0  [cm-1]   --> A_2  D_2  S_2      
     freq (   4-   4) =        195.0  [cm-1]   --> A_2  D_2  S_2      
     freq (   5-   5) =        209.1  [cm-1]   --> B_2  D_4  S_4      
     freq (   6-   6) =        291.7  [cm-1]   --> B_2  D_4  S_4      
     freq (   7-   7) =        386.8  [cm-1]   --> B_1  D_3  S_3      
     freq (   8-   8) =        442.3  [cm-1]   --> A_1  D_1  S_1      
     freq (   9-   9) =        543.1  [cm-1]   --> A_1  D_1  S_1      
 
     init_run     :      9.92s CPU     18.87s WALL (      15 calls)
     electrons    :    420.81s CPU    434.34s WALL (      15 calls)

     Called by init_run:
     wfcinit      :      0.01s CPU      6.04s WALL (      15 calls)
     potinit      :      3.39s CPU      6.11s WALL (      15 calls)
     hinit0       :      2.20s CPU      2.26s WALL (      15 calls)

     Called by electrons:
     c_bands      :    420.80s CPU    434.33s WALL (      15 calls)
     v_of_rho     :      0.35s CPU      0.39s WALL (      16 calls)
     newd         :      0.45s CPU      0.55s WALL (      16 calls)
     PAW_pot      :      3.16s CPU      3.21s WALL (      16 calls)

     Called by c_bands:
     init_us_2    :     49.47s CPU     53.70s WALL (  350251 calls)
     init_us_2:cp :     48.72s CPU     52.94s WALL (  350251 calls)
     cegterg      :    327.76s CPU    334.42s WALL (    4384 calls)

     Called by *egterg:
     cdiaghg      :     59.32s CPU     60.53s WALL (   65060 calls)
     h_psi        :  17646.22s CPU  18256.30s WALL ( 7051404 calls)
     s_psi        :    485.67s CPU    504.36s WALL (14344588 calls)
     g_psi        :      0.99s CPU      1.01s WALL (   60676 calls)

     Called by h_psi:
     h_psi:calbec :    724.15s CPU    750.74s WALL ( 7051404 calls)
     vloc_psi     :  16550.65s CPU  17121.58s WALL ( 7051404 calls)
     add_vuspsi   :    294.68s CPU    306.15s WALL ( 7051404 calls)

     General routines
     calbec       :   1140.18s CPU   1188.69s WALL (14793906 calls)
     fft          :     32.45s CPU     33.15s WALL (   35393 calls)
     ffts         :     72.39s CPU     77.99s WALL (   25432 calls)
     fftw         :  14835.15s CPU  15422.16s WALL (******** calls)
     interpolate  :      6.08s CPU      6.58s WALL (    4156 calls)
     davcio       :     89.12s CPU    277.82s WALL ( 1612805 calls)
 
     Parallel routines
 
     PHONON       :      6h51m CPU      7h24m WALL

     INITIALIZATION: 
     phq_setup    :      0.82s CPU      2.54s WALL (      16 calls)
     phq_init     :    123.16s CPU    126.80s WALL (      16 calls)
 
     phq_init     :    123.16s CPU    126.80s WALL (      16 calls)
     set_drhoc    :      7.43s CPU      7.48s WALL (      48 calls)
     init_vloc    :      0.13s CPU      0.13s WALL (      16 calls)
     init_us_1    :      2.12s CPU      2.19s WALL (      16 calls)
     init_us_2    :     49.47s CPU     53.70s WALL (  350251 calls)
     newd         :      0.45s CPU      0.55s WALL (      16 calls)
     dvanqq       :     31.25s CPU     31.42s WALL (      16 calls)
     drho         :     75.51s CPU     78.03s WALL (      16 calls)
     drhous       :     48.88s CPU     49.99s WALL (      16 calls)
     nldyntot     :      2.62s CPU      2.62s WALL (      16 calls)
 
     DYNAMICAL MATRIX:
     dynmat0      :     10.72s CPU     11.44s WALL (      16 calls)
     dynmat_us    :      5.22s CPU      5.45s WALL (      16 calls)
     addusdynmat  :      0.00s CPU      0.00s WALL (      16 calls)
     d2ionq       :      0.07s CPU      0.07s WALL (      16 calls)
     dynmatcc     :      5.25s CPU      5.26s WALL (      16 calls)
     phqscf       :  24085.40s CPU  25984.63s WALL (      16 calls)
     dynmatrix    :      0.29s CPU      1.91s WALL (      16 calls)
 
     phqscf       :  24085.40s CPU  25984.63s WALL (      16 calls)
     solve_linter :  24069.49s CPU  25924.53s WALL (     120 calls)
     sth_kernel   :  21670.79s CPU  22623.26s WALL (    1781 calls)
     h_prec       :     14.68s CPU     16.50s WALL (  299833 calls)
     apply_dpot_b :    759.84s CPU    825.20s WALL (  291172 calls)
     ortho        :     63.14s CPU     69.05s WALL (  311170 calls)
     cgsolve      :  19309.91s CPU  19987.93s WALL (  311170 calls)
     incdrhoscf   :   1039.27s CPU   1132.48s WALL (  311170 calls)
                                        0.00s GPU  (  311170 calls)
     addusddens   :    331.92s CPU    336.26s WALL (    1893 calls)
     dv_of_drho   :     48.10s CPU     48.65s WALL (    1992 calls)
     mix_pot      :     37.39s CPU    261.70s WALL (    1781 calls)
     drhodv       :     13.92s CPU     14.92s WALL (     120 calls)
     psymdvscf    :    170.36s CPU    171.14s WALL (    1773 calls)
     newdq        :    291.38s CPU    292.55s WALL (    1781 calls)
     adddvscf     :     65.13s CPU     70.46s WALL (  291172 calls)
     drhodvus     :      0.44s CPU      0.69s WALL (     120 calls)
 
     dvqpsi_us    :    178.37s CPU    189.82s WALL (   20052 calls)
                                        0.00s GPU  (   20052 calls)
     dvqpsi_us_on :     35.81s CPU     37.37s WALL (   20052 calls)
 
     add_vuspsi   :    294.68s CPU    306.15s WALL ( 7051404 calls)
     addusdbec    :     53.73s CPU     57.55s WALL (  331060 calls)
 
     drhodvus     :      0.44s CPU      0.69s WALL (     120 calls)
 
      General routines
     calbec       :   1140.18s CPU   1188.69s WALL (14793906 calls)
     fft          :     32.45s CPU     33.15s WALL (   35393 calls)
     ffts         :     72.39s CPU     77.99s WALL (   25432 calls)
     fftw         :  14835.15s CPU  15422.16s WALL (******** calls)
     davcio       :     89.12s CPU    277.82s WALL ( 1612805 calls)
     write_rec    :     13.16s CPU    676.19s WALL (    1901 calls)
 
      Additional routines
     ch_psi       :  18881.76s CPU  19541.23s WALL ( 6981960 calls)
     last         :   1089.73s CPU   1132.01s WALL ( 6981960 calls)
     Hesh         :     56.05s CPU     58.56s WALL ( 6981960 calls)
     ch_psi_all_k :   1005.18s CPU   1044.67s WALL ( 6981960 calls)
                                        0.00s GPU  ( 6981960 calls)
     ch_psi_calbe :    370.80s CPU    384.45s WALL ( 6981960 calls)
                                        0.00s GPU  ( 6981960 calls)
     h_psi_bgrp   :  17661.05s CPU  18271.67s WALL ( 7051404 calls)
     h_psi        :  17646.22s CPU  18256.30s WALL ( 7051404 calls)
     h_psi:pot    :  17604.01s CPU  18212.20s WALL ( 7051404 calls)
     h_psi:calbec :    724.15s CPU    750.74s WALL ( 7051404 calls)
     s_psi_bgrp   :    580.20s CPU    602.26s WALL (14344588 calls)
     s_psi        :    485.67s CPU    504.36s WALL (14344588 calls)
 
 
     PHONON       :      6h51m CPU      7h24m WALL

 
   This run was terminated on:   1:56:31  20Oct2023            

=------------------------------------------------------------------------------=
   JOB DONE.
=------------------------------------------------------------------------------=
