
     Program Q2R v.7.2 starts on 20Oct2023 at  1:56:40 

     This program is part of the open-source Quantum ESPRESSO suite
     for quantum simulation of materials; please cite
         "P. Giannozzi et al., J. Phys.:Condens. Matter 21 395502 (2009);
         "P. Giannozzi et al., J. Phys.:Condens. Matter 29 465901 (2017);
         "P. Giannozzi et al., J. Chem. Phys. 152 154105 (2020);
          URL http://www.quantum-espresso.org", 
     in publications or presentations arising from this work. More details at
     http://www.quantum-espresso.org/quote

     Parallel version (MPI), running on    40 processors

     MPI processes distributed on     1 nodes
     R & G space division:  proc/nbgrp/npool/nimage =      40
     184968 MiB available memory on the printing compute node when the environment starts
 
 
  file CeO.dyn0.xml not found

  reading grid info from file CeO.dyn0

  reading force constants from file CeO.dyn1
  nqs=            1
 q=   0.00000000  0.00000000  0.00000000
  reading force constants from file CeO.dyn2
  nqs=            8
 q=  -0.16666667  0.16666667 -0.16666667
 q=   0.16666667  0.16666667  0.16666667
 q=  -0.16666667 -0.16666667 -0.16666667
 q=   0.16666667 -0.16666667  0.16666667
 q=   0.16666667 -0.16666667 -0.16666667
 q=   0.16666667  0.16666667 -0.16666667
 q=  -0.16666667 -0.16666667  0.16666667
 q=  -0.16666667  0.16666667  0.16666667
  reading force constants from file CeO.dyn3
  nqs=            8
 q=  -0.33333333  0.33333333 -0.33333333
 q=   0.33333333  0.33333333  0.33333333
 q=  -0.33333333 -0.33333333 -0.33333333
 q=   0.33333333 -0.33333333  0.33333333
 q=   0.33333333 -0.33333333 -0.33333333
 q=   0.33333333  0.33333333 -0.33333333
 q=  -0.33333333 -0.33333333  0.33333333
 q=  -0.33333333  0.33333333  0.33333333
  reading force constants from file CeO.dyn4
  nqs=            4
 q=   0.50000000 -0.50000000  0.50000000
 q=   0.50000000  0.50000000  0.50000000
 q=  -0.50000000  0.50000000  0.50000000
 q=   0.50000000  0.50000000 -0.50000000
  reading force constants from file CeO.dyn5
  nqs=            6
 q=   0.00000000  0.33333333  0.00000000
 q=   0.33333333  0.00000000  0.00000000
 q=   0.00000000  0.00000000  0.33333333
 q=   0.00000000 -0.33333333  0.00000000
 q=  -0.33333333  0.00000000  0.00000000
 q=   0.00000000  0.00000000 -0.33333333
  reading force constants from file CeO.dyn6
  nqs=           24
 q=  -0.16666667  0.50000000 -0.16666667
 q=   0.16666667  0.50000000  0.16666667
 q=  -0.16666667  0.50000000  0.16666667
 q=   0.16666667  0.50000000 -0.16666667
 q=   0.50000000 -0.16666667  0.16666667
 q=   0.16666667 -0.16666667  0.50000000
 q=  -0.16666667 -0.50000000 -0.16666667
 q=   0.16666667 -0.50000000 -0.16666667
 q=  -0.16666667 -0.50000000  0.16666667
 q=   0.50000000 -0.16666667 -0.16666667
 q=  -0.50000000 -0.16666667  0.16666667
 q=   0.50000000  0.16666667  0.16666667
 q=  -0.16666667  0.16666667 -0.50000000
 q=  -0.16666667 -0.16666667  0.50000000
 q=   0.16666667  0.16666667  0.50000000
 q=   0.16666667 -0.16666667 -0.50000000
 q=  -0.50000000  0.16666667 -0.16666667
 q=  -0.50000000 -0.16666667 -0.16666667
 q=   0.16666667 -0.50000000  0.16666667
 q=   0.50000000  0.16666667 -0.16666667
 q=   0.16666667  0.16666667 -0.50000000
 q=  -0.16666667 -0.16666667 -0.50000000
 q=  -0.50000000  0.16666667  0.16666667
 q=  -0.16666667  0.16666667  0.50000000
  reading force constants from file CeO.dyn7
  nqs=           24
 q=   0.66666667 -0.33333333  0.66666667
 q=  -0.66666667 -0.33333333 -0.66666667
 q=   0.66666667 -0.33333333 -0.66666667
 q=  -0.66666667 -0.33333333  0.66666667
 q=  -0.33333333  0.66666667 -0.66666667
 q=  -0.66666667  0.66666667 -0.33333333
 q=   0.66666667  0.33333333  0.66666667
 q=  -0.66666667  0.33333333  0.66666667
 q=   0.66666667  0.33333333 -0.66666667
 q=  -0.33333333  0.66666667  0.66666667
 q=   0.33333333  0.66666667 -0.66666667
 q=  -0.33333333 -0.66666667 -0.66666667
 q=   0.66666667 -0.66666667  0.33333333
 q=   0.66666667  0.66666667 -0.33333333
 q=  -0.66666667 -0.66666667 -0.33333333
 q=  -0.66666667  0.66666667  0.33333333
 q=   0.33333333 -0.66666667  0.66666667
 q=   0.33333333  0.66666667  0.66666667
 q=  -0.66666667  0.33333333 -0.66666667
 q=  -0.33333333 -0.66666667  0.66666667
 q=  -0.66666667 -0.66666667  0.33333333
 q=   0.66666667  0.66666667  0.33333333
 q=   0.33333333 -0.66666667 -0.66666667
 q=   0.66666667 -0.66666667 -0.33333333
  reading force constants from file CeO.dyn8
  nqs=           24
 q=   0.50000000 -0.16666667  0.50000000
 q=  -0.50000000 -0.16666667 -0.50000000
 q=   0.50000000 -0.16666667 -0.50000000
 q=  -0.50000000 -0.16666667  0.50000000
 q=  -0.16666667  0.50000000 -0.50000000
 q=  -0.50000000  0.50000000 -0.16666667
 q=   0.50000000  0.16666667  0.50000000
 q=  -0.50000000  0.16666667  0.50000000
 q=   0.50000000  0.16666667 -0.50000000
 q=  -0.16666667  0.50000000  0.50000000
 q=   0.16666667  0.50000000 -0.50000000
 q=  -0.16666667 -0.50000000 -0.50000000
 q=   0.50000000 -0.50000000  0.16666667
 q=   0.50000000  0.50000000 -0.16666667
 q=  -0.50000000 -0.50000000 -0.16666667
 q=  -0.50000000  0.50000000  0.16666667
 q=   0.16666667 -0.50000000  0.50000000
 q=   0.16666667  0.50000000  0.50000000
 q=  -0.50000000  0.16666667 -0.50000000
 q=  -0.16666667 -0.50000000  0.50000000
 q=  -0.50000000 -0.50000000  0.16666667
 q=   0.50000000  0.50000000  0.16666667
 q=   0.16666667 -0.50000000 -0.50000000
 q=   0.50000000 -0.50000000 -0.16666667
  reading force constants from file CeO.dyn9
  nqs=           12
 q=   0.33333333  0.00000000  0.33333333
 q=  -0.33333333  0.00000000  0.33333333
 q=   0.33333333  0.00000000 -0.33333333
 q=  -0.33333333  0.00000000 -0.33333333
 q=   0.00000000  0.33333333 -0.33333333
 q=  -0.33333333  0.33333333  0.00000000
 q=   0.00000000  0.33333333  0.33333333
 q=   0.00000000 -0.33333333 -0.33333333
 q=   0.33333333 -0.33333333  0.00000000
 q=   0.33333333  0.33333333  0.00000000
 q=  -0.33333333 -0.33333333  0.00000000
 q=   0.00000000 -0.33333333  0.33333333
  reading force constants from file CeO.dyn10
  nqs=            6
 q=   0.00000000  0.66666667  0.00000000
 q=   0.66666667  0.00000000  0.00000000
 q=   0.00000000  0.00000000  0.66666667
 q=   0.00000000 -0.66666667  0.00000000
 q=  -0.66666667  0.00000000  0.00000000
 q=   0.00000000  0.00000000 -0.66666667
  reading force constants from file CeO.dyn11
  nqs=           24
 q=   0.83333333 -0.16666667  0.83333333
 q=  -0.83333333 -0.16666667  0.83333333
 q=   0.83333333 -0.16666667 -0.83333333
 q=  -0.83333333 -0.16666667 -0.83333333
 q=  -0.16666667  0.83333333 -0.83333333
 q=  -0.83333333  0.83333333 -0.16666667
 q=   0.83333333  0.16666667  0.83333333
 q=  -0.83333333  0.16666667  0.83333333
 q=   0.83333333  0.16666667 -0.83333333
 q=  -0.16666667  0.83333333  0.83333333
 q=   0.16666667  0.83333333 -0.83333333
 q=  -0.16666667 -0.83333333 -0.83333333
 q=   0.83333333 -0.83333333  0.16666667
 q=   0.83333333  0.83333333 -0.16666667
 q=  -0.83333333 -0.83333333 -0.16666667
 q=  -0.83333333  0.83333333  0.16666667
 q=   0.16666667 -0.83333333  0.83333333
 q=   0.16666667  0.83333333  0.83333333
 q=  -0.83333333  0.16666667 -0.83333333
 q=  -0.16666667 -0.83333333  0.83333333
 q=  -0.83333333 -0.83333333  0.16666667
 q=   0.83333333  0.83333333  0.16666667
 q=   0.16666667 -0.83333333 -0.83333333
 q=   0.83333333 -0.83333333 -0.16666667
  reading force constants from file CeO.dyn12
  nqs=           12
 q=   0.66666667  0.00000000  0.66666667
 q=  -0.66666667  0.00000000  0.66666667
 q=  -0.66666667  0.00000000 -0.66666667
 q=   0.66666667  0.00000000 -0.66666667
 q=   0.00000000  0.66666667 -0.66666667
 q=  -0.66666667  0.66666667  0.00000000
 q=   0.00000000  0.66666667  0.66666667
 q=   0.00000000 -0.66666667 -0.66666667
 q=   0.66666667 -0.66666667  0.00000000
 q=   0.66666667  0.66666667  0.00000000
 q=  -0.66666667 -0.66666667  0.00000000
 q=   0.00000000 -0.66666667  0.66666667
  reading force constants from file CeO.dyn13
  nqs=            3
 q=   0.00000000 -1.00000000  0.00000000
 q=  -1.00000000  0.00000000  0.00000000
 q=   0.00000000  0.00000000  1.00000000
  reading force constants from file CeO.dyn14
  nqs=           24
 q=   0.66666667 -0.33333333  1.00000000
 q=   1.00000000  0.33333333  0.66666667
 q=   0.66666667  0.33333333  1.00000000
 q=  -1.00000000 -0.33333333  0.66666667
 q=  -1.00000000 -0.33333333 -0.66666667
 q=  -0.66666667 -0.33333333 -1.00000000
 q=   1.00000000  0.33333333 -0.66666667
 q=  -0.66666667  0.33333333  1.00000000
 q=  -0.33333333  1.00000000  0.66666667
 q=   0.33333333  1.00000000 -0.66666667
 q=  -0.33333333 -1.00000000 -0.66666667
 q=   1.00000000 -0.66666667  0.33333333
 q=   1.00000000  0.66666667 -0.33333333
 q=  -0.33333333  0.66666667 -1.00000000
 q=  -1.00000000 -0.66666667 -0.33333333
 q=  -1.00000000  0.66666667  0.33333333
 q=   0.33333333 -0.66666667  1.00000000
 q=   0.33333333 -1.00000000  0.66666667
 q=   0.66666667 -1.00000000  0.33333333
 q=   0.33333333  0.66666667  1.00000000
 q=  -0.33333333 -0.66666667 -1.00000000
 q=  -0.66666667 -1.00000000  0.33333333
 q=   0.66666667  1.00000000 -0.33333333
 q=  -0.66666667 -1.00000000 -0.33333333
  reading force constants from file CeO.dyn15
  nqs=           24
 q=   0.50000000 -0.16666667  0.83333333
 q=   0.83333333  0.16666667  0.50000000
 q=   0.50000000  0.16666667  0.83333333
 q=  -0.83333333 -0.16666667  0.50000000
 q=  -0.83333333 -0.16666667 -0.50000000
 q=  -0.50000000 -0.16666667 -0.83333333
 q=   0.83333333 -0.16666667  0.50000000
 q=  -0.50000000 -0.16666667  0.83333333
 q=  -0.83333333  0.16666667  0.50000000
 q=   0.83333333  0.16666667 -0.50000000
 q=   0.83333333 -0.16666667 -0.50000000
 q=   0.50000000  0.16666667 -0.83333333
 q=  -0.50000000  0.16666667  0.83333333
 q=  -0.50000000  0.16666667 -0.83333333
 q=  -0.83333333  0.16666667 -0.50000000
 q=   0.83333333 -0.50000000  0.16666667
 q=   0.83333333  0.50000000 -0.16666667
 q=  -0.83333333 -0.50000000 -0.16666667
 q=  -0.83333333  0.50000000  0.16666667
 q=   0.16666667 -0.50000000  0.83333333
 q=  -0.16666667  0.50000000  0.83333333
 q=   0.16666667  0.50000000 -0.83333333
 q=  -0.16666667 -0.50000000 -0.83333333
 q=  -0.50000000  0.83333333  0.16666667
  reading force constants from file CeO.dyn16
  nqs=           12
 q=  -0.33333333 -1.00000000  0.00000000
 q=   0.00000000 -1.00000000 -0.33333333
 q=   0.00000000 -1.00000000  0.33333333
 q=   0.33333333 -1.00000000  0.00000000
 q=  -1.00000000  0.00000000 -0.33333333
 q=   1.00000000  0.00000000  0.33333333
 q=   0.00000000  0.33333333  1.00000000
 q=   0.00000000 -0.33333333 -1.00000000
 q=  -1.00000000 -0.33333333  0.00000000
 q=   1.00000000  0.33333333  0.00000000
 q=  -0.33333333  0.00000000  1.00000000
 q=   0.33333333  0.00000000  1.00000000

      q-space grid ok, #points =  216

      fft-check success (sum of imaginary terms < 10^-12)
 
     Q2R          :      0.06s CPU      2.92s WALL

 
   This run was terminated on:   1:56:43  20Oct2023            

=------------------------------------------------------------------------------=
   JOB DONE.
=------------------------------------------------------------------------------=
