
     Program PWSCF v.7.2 starts on 19Oct2023 at 18:31:34 

     This program is part of the open-source Quantum ESPRESSO suite
     for quantum simulation of materials; please cite
         "P. Giannozzi et al., J. Phys.:Condens. Matter 21 395502 (2009);
         "P. Giannozzi et al., J. Phys.:Condens. Matter 29 465901 (2017);
         "P. Giannozzi et al., J. Chem. Phys. 152 154105 (2020);
          URL http://www.quantum-espresso.org", 
     in publications or presentations arising from this work. More details at
     http://www.quantum-espresso.org/quote

     Parallel version (MPI), running on    40 processors

     MPI processes distributed on     1 nodes
     185021 MiB available memory on the printing compute node when the environment starts
 
     Waiting for input...
     Reading input from standard input
Warning: card &CELL ignored
Warning: card   PRESS_CONV_THR=0.01 ignored
Warning: card / ignored

     Current dimensions of program PWSCF are:
     Max number of different atomic species (ntypx) = 10
     Max number of k-points (npk) =  40000
     Max angular momentum in pseudopotentials (lmaxx) =  4
     file Ce.paw.z_12.atompaw.wentzcovitch.v1.2.upf: wavefunction(s)  6S 0P 5D 0D 4F 0F renormalized
     file O.pbe-n-kjpaw_psl.0.1.UPF: wavefunction(s)  2P renormalized
 
     K-points division:     npool     =       4
     R & G space division:  proc/nbgrp/npool/nimage =      10
     Subspace diagonalization in iterative solution of the eigenvalue problem:
     a serial algorithm will be used

 
     Parallelization info
     --------------------
     sticks:   dense  smooth     PW     G-vecs:    dense   smooth      PW
     Min         292     116     34                10539     2656     427
     Max         293     120     35                10541     2657     430
     Sum        2929    1165    349               105395    26565    4285
 
     Using Slab Decomposition
 

     Title: 
     Compound 2:bulk:(In 2)(O 3)8:cI(3):Ia-3 (206):primitive                    


     bravais-lattice index     =            2
     lattice parameter (alat)  =      10.3388  a.u.
     unit-cell volume          =     276.2768 (a.u.)^3
     number of atoms/cell      =            3
     number of atomic types    =            2
     number of electrons       =        24.00
     number of Kohn-Sham states=           19
     kinetic-energy cutoff     =      80.0000  Ry
     charge density cutoff     =     800.0000  Ry
     scf convergence threshold =      1.0E-14
     mixing beta               =       0.7000
     number of iterations used =            8  plain     mixing
     Exchange-correlation= SLA  PW   PBX  PBC
                           (   1   4   3   4   0   0   0)

     celldm(1)=  10.338753  celldm(2)=   0.000000  celldm(3)=   0.000000
     celldm(4)=   0.000000  celldm(5)=   0.000000  celldm(6)=   0.000000

     crystal axes: (cart. coord. in units of alat)
               a(1) = (  -0.500000   0.000000   0.500000 )  
               a(2) = (   0.000000   0.500000   0.500000 )  
               a(3) = (  -0.500000   0.500000   0.000000 )  

     reciprocal axes: (cart. coord. in units 2 pi/alat)
               b(1) = ( -1.000000 -1.000000  1.000000 )  
               b(2) = (  1.000000  1.000000  1.000000 )  
               b(3) = ( -1.000000  1.000000 -1.000000 )  


     PseudoPot. # 1 for Ce read from file:
     ./Ce.paw.z_12.atompaw.wentzcovitch.v1.2.upf
     MD5 check sum: 2241420ff980c77e0c917a2dc8a7e08e
     Pseudo is Projector augmented-wave + core cor, Zval = 12.0
     Generated using ATOMPAW code
     Shape of augmentation charge: BESSEL
     Using radial grid of 1102 points,  8 beta functions with: 
                l(1) =   0
                l(2) =   0
                l(3) =   1
                l(4) =   1
                l(5) =   2
                l(6) =   2
                l(7) =   3
                l(8) =   3
     Q(r) pseudized with 0 coefficients 


     PseudoPot. # 2 for O  read from file:
     ./O.pbe-n-kjpaw_psl.0.1.UPF
     MD5 check sum: 0234752ac141de4415c5fc33072bef88
     Pseudo is Projector augmented-wave + core cor, Zval =  6.0
     Generated using "atomic" code by A. Dal Corso  v.5.0.99 svn rev. 10869
     Shape of augmentation charge: BESSEL
     Using radial grid of 1095 points,  4 beta functions with: 
                l(1) =   0
                l(2) =   0
                l(3) =   1
                l(4) =   1
     Q(r) pseudized with 0 coefficients 


     atomic species   valence    mass     pseudopotential
        Ce            12.00   140.11600     Ce( 1.00)
        O              6.00    15.99940     O ( 1.00)

     48 Sym. Ops., with inversion, found


                                    s                        frac. trans.

      isym =  1     identity                                     

 cryst.   s( 1) = (     1          0          0      )
                  (     0          1          0      )
                  (     0          0          1      )

 cart.    s( 1) = (  1.0000000  0.0000000  0.0000000 )
                  (  0.0000000  1.0000000  0.0000000 )
                  (  0.0000000  0.0000000  1.0000000 )


      isym =  2     180 deg rotation - cart. axis [0,0,1]        

 cryst.   s( 2) = (     0          1         -1      )
                  (     1          0         -1      )
                  (     0          0         -1      )

 cart.    s( 2) = ( -1.0000000  0.0000000  0.0000000 )
                  (  0.0000000 -1.0000000  0.0000000 )
                  (  0.0000000  0.0000000  1.0000000 )


      isym =  3     180 deg rotation - cart. axis [0,1,0]        

 cryst.   s( 3) = (    -1          0          0      )
                  (    -1          0          1      )
                  (    -1          1          0      )

 cart.    s( 3) = ( -1.0000000  0.0000000  0.0000000 )
                  (  0.0000000  1.0000000  0.0000000 )
                  (  0.0000000  0.0000000 -1.0000000 )


      isym =  4     180 deg rotation - cart. axis [1,0,0]        

 cryst.   s( 4) = (     0         -1          1      )
                  (     0         -1          0      )
                  (     1         -1          0      )

 cart.    s( 4) = (  1.0000000  0.0000000  0.0000000 )
                  (  0.0000000 -1.0000000  0.0000000 )
                  (  0.0000000  0.0000000 -1.0000000 )


      isym =  5     180 deg rotation - cart. axis [1,1,0]        

 cryst.   s( 5) = (     0         -1          0      )
                  (    -1          0          0      )
                  (     0          0         -1      )

 cart.    s( 5) = (  0.0000000  1.0000000  0.0000000 )
                  (  1.0000000  0.0000000  0.0000000 )
                  (  0.0000000  0.0000000 -1.0000000 )


      isym =  6     180 deg rotation - cart. axis [1,-1,0]       

 cryst.   s( 6) = (    -1          0          1      )
                  (     0         -1          1      )
                  (     0          0          1      )

 cart.    s( 6) = (  0.0000000 -1.0000000  0.0000000 )
                  ( -1.0000000  0.0000000  0.0000000 )
                  (  0.0000000  0.0000000 -1.0000000 )


      isym =  7      90 deg rotation - cart. axis [0,0,-1]       

 cryst.   s( 7) = (     0          1          0      )
                  (     0          1         -1      )
                  (    -1          1          0      )

 cart.    s( 7) = (  0.0000000  1.0000000  0.0000000 )
                  ( -1.0000000  0.0000000  0.0000000 )
                  (  0.0000000  0.0000000  1.0000000 )


      isym =  8      90 deg rotation - cart. axis [0,0,1]        

 cryst.   s( 8) = (     1          0         -1      )
                  (     1          0          0      )
                  (     1         -1          0      )

 cart.    s( 8) = (  0.0000000 -1.0000000  0.0000000 )
                  (  1.0000000  0.0000000  0.0000000 )
                  (  0.0000000  0.0000000  1.0000000 )


      isym =  9     180 deg rotation - cart. axis [1,0,1]        

 cryst.   s( 9) = (    -1          0          0      )
                  (     0          0         -1      )
                  (     0         -1          0      )

 cart.    s( 9) = (  0.0000000  0.0000000  1.0000000 )
                  (  0.0000000 -1.0000000  0.0000000 )
                  (  1.0000000  0.0000000  0.0000000 )


      isym = 10     180 deg rotation - cart. axis [-1,0,1]       

 cryst.   s(10) = (     1          0          0      )
                  (     1         -1          0      )
                  (     1          0         -1      )

 cart.    s(10) = (  0.0000000  0.0000000 -1.0000000 )
                  (  0.0000000 -1.0000000  0.0000000 )
                  ( -1.0000000  0.0000000  0.0000000 )


      isym = 11      90 deg rotation - cart. axis [0,1,0]        

 cryst.   s(11) = (     0          1         -1      )
                  (    -1          1          0      )
                  (     0          1          0      )

 cart.    s(11) = (  0.0000000  0.0000000  1.0000000 )
                  (  0.0000000  1.0000000  0.0000000 )
                  ( -1.0000000  0.0000000  0.0000000 )


      isym = 12      90 deg rotation - cart. axis [0,-1,0]       

 cryst.   s(12) = (     0         -1          1      )
                  (     0          0          1      )
                  (    -1          0          1      )

 cart.    s(12) = (  0.0000000  0.0000000 -1.0000000 )
                  (  0.0000000  1.0000000  0.0000000 )
                  (  1.0000000  0.0000000  0.0000000 )


      isym = 13     180 deg rotation - cart. axis [0,1,1]        

 cryst.   s(13) = (    -1          1          0      )
                  (     0          1          0      )
                  (     0          1         -1      )

 cart.    s(13) = ( -1.0000000  0.0000000  0.0000000 )
                  (  0.0000000  0.0000000  1.0000000 )
                  (  0.0000000  1.0000000  0.0000000 )


      isym = 14     180 deg rotation - cart. axis [0,1,-1]       

 cryst.   s(14) = (     0          0         -1      )
                  (     0         -1          0      )
                  (    -1          0          0      )

 cart.    s(14) = ( -1.0000000  0.0000000  0.0000000 )
                  (  0.0000000  0.0000000 -1.0000000 )
                  (  0.0000000 -1.0000000  0.0000000 )


      isym = 15      90 deg rotation - cart. axis [-1,0,0]       

 cryst.   s(15) = (     0          0          1      )
                  (    -1          0          1      )
                  (     0         -1          1      )

 cart.    s(15) = (  1.0000000  0.0000000  0.0000000 )
                  (  0.0000000  0.0000000  1.0000000 )
                  (  0.0000000 -1.0000000  0.0000000 )


      isym = 16      90 deg rotation - cart. axis [1,0,0]        

 cryst.   s(16) = (     1         -1          0      )
                  (     1          0         -1      )
                  (     1          0          0      )

 cart.    s(16) = (  1.0000000  0.0000000  0.0000000 )
                  (  0.0000000  0.0000000 -1.0000000 )
                  (  0.0000000  1.0000000  0.0000000 )


      isym = 17     120 deg rotation - cart. axis [-1,-1,-1]     

 cryst.   s(17) = (    -1          0          1      )
                  (    -1          1          0      )
                  (    -1          0          0      )

 cart.    s(17) = (  0.0000000  1.0000000  0.0000000 )
                  (  0.0000000  0.0000000  1.0000000 )
                  (  1.0000000  0.0000000  0.0000000 )


      isym = 18     120 deg rotation - cart. axis [-1,1,1]       

 cryst.   s(18) = (     0          1          0      )
                  (     0          0          1      )
                  (     1          0          0      )

 cart.    s(18) = (  0.0000000 -1.0000000  0.0000000 )
                  (  0.0000000  0.0000000  1.0000000 )
                  ( -1.0000000  0.0000000  0.0000000 )


      isym = 19     120 deg rotation - cart. axis [1,1,-1]       

 cryst.   s(19) = (     1          0         -1      )
                  (     0          0         -1      )
                  (     0          1         -1      )

 cart.    s(19) = (  0.0000000  1.0000000  0.0000000 )
                  (  0.0000000  0.0000000 -1.0000000 )
                  ( -1.0000000  0.0000000  0.0000000 )


      isym = 20     120 deg rotation - cart. axis [1,-1,1]       

 cryst.   s(20) = (     0         -1          0      )
                  (     1         -1          0      )
                  (     0         -1          1      )

 cart.    s(20) = (  0.0000000 -1.0000000  0.0000000 )
                  (  0.0000000  0.0000000 -1.0000000 )
                  (  1.0000000  0.0000000  0.0000000 )


      isym = 21     120 deg rotation - cart. axis [1,1,1]        

 cryst.   s(21) = (     0          0         -1      )
                  (     0          1         -1      )
                  (     1          0         -1      )

 cart.    s(21) = (  0.0000000  0.0000000  1.0000000 )
                  (  1.0000000  0.0000000  0.0000000 )
                  (  0.0000000  1.0000000  0.0000000 )


      isym = 22     120 deg rotation - cart. axis [-1,1,-1]      

 cryst.   s(22) = (    -1          1          0      )
                  (    -1          0          0      )
                  (    -1          0          1      )

 cart.    s(22) = (  0.0000000  0.0000000  1.0000000 )
                  ( -1.0000000  0.0000000  0.0000000 )
                  (  0.0000000 -1.0000000  0.0000000 )


      isym = 23     120 deg rotation - cart. axis [1,-1,-1]      

 cryst.   s(23) = (     0          0          1      )
                  (     1          0          0      )
                  (     0          1          0      )

 cart.    s(23) = (  0.0000000  0.0000000 -1.0000000 )
                  ( -1.0000000  0.0000000  0.0000000 )
                  (  0.0000000  1.0000000  0.0000000 )


      isym = 24     120 deg rotation - cart. axis [-1,-1,1]      

 cryst.   s(24) = (     1         -1          0      )
                  (     0         -1          1      )
                  (     0         -1          0      )

 cart.    s(24) = (  0.0000000  0.0000000 -1.0000000 )
                  (  1.0000000  0.0000000  0.0000000 )
                  (  0.0000000 -1.0000000  0.0000000 )


      isym = 25     inversion                                    

 cryst.   s(25) = (    -1          0          0      )
                  (     0         -1          0      )
                  (     0          0         -1      )

 cart.    s(25) = ( -1.0000000  0.0000000  0.0000000 )
                  (  0.0000000 -1.0000000  0.0000000 )
                  (  0.0000000  0.0000000 -1.0000000 )


      isym = 26     inv. 180 deg rotation - cart. axis [0,0,1]   

 cryst.   s(26) = (     0         -1          1      )
                  (    -1          0          1      )
                  (     0          0          1      )

 cart.    s(26) = (  1.0000000  0.0000000  0.0000000 )
                  (  0.0000000  1.0000000  0.0000000 )
                  (  0.0000000  0.0000000 -1.0000000 )


      isym = 27     inv. 180 deg rotation - cart. axis [0,1,0]   

 cryst.   s(27) = (     1          0          0      )
                  (     1          0         -1      )
                  (     1         -1          0      )

 cart.    s(27) = (  1.0000000  0.0000000  0.0000000 )
                  (  0.0000000 -1.0000000  0.0000000 )
                  (  0.0000000  0.0000000  1.0000000 )


      isym = 28     inv. 180 deg rotation - cart. axis [1,0,0]   

 cryst.   s(28) = (     0          1         -1      )
                  (     0          1          0      )
                  (    -1          1          0      )

 cart.    s(28) = ( -1.0000000  0.0000000  0.0000000 )
                  (  0.0000000  1.0000000  0.0000000 )
                  (  0.0000000  0.0000000  1.0000000 )


      isym = 29     inv. 180 deg rotation - cart. axis [1,1,0]   

 cryst.   s(29) = (     0          1          0      )
                  (     1          0          0      )
                  (     0          0          1      )

 cart.    s(29) = (  0.0000000 -1.0000000  0.0000000 )
                  ( -1.0000000  0.0000000  0.0000000 )
                  (  0.0000000  0.0000000  1.0000000 )


      isym = 30     inv. 180 deg rotation - cart. axis [1,-1,0]  

 cryst.   s(30) = (     1          0         -1      )
                  (     0          1         -1      )
                  (     0          0         -1      )

 cart.    s(30) = (  0.0000000  1.0000000  0.0000000 )
                  (  1.0000000  0.0000000  0.0000000 )
                  (  0.0000000  0.0000000  1.0000000 )


      isym = 31     inv.  90 deg rotation - cart. axis [0,0,-1]  

 cryst.   s(31) = (     0         -1          0      )
                  (     0         -1          1      )
                  (     1         -1          0      )

 cart.    s(31) = (  0.0000000 -1.0000000  0.0000000 )
                  (  1.0000000  0.0000000  0.0000000 )
                  (  0.0000000  0.0000000 -1.0000000 )


      isym = 32     inv.  90 deg rotation - cart. axis [0,0,1]   

 cryst.   s(32) = (    -1          0          1      )
                  (    -1          0          0      )
                  (    -1          1          0      )

 cart.    s(32) = (  0.0000000  1.0000000  0.0000000 )
                  ( -1.0000000  0.0000000  0.0000000 )
                  (  0.0000000  0.0000000 -1.0000000 )


      isym = 33     inv. 180 deg rotation - cart. axis [1,0,1]   

 cryst.   s(33) = (     1          0          0      )
                  (     0          0          1      )
                  (     0          1          0      )

 cart.    s(33) = (  0.0000000  0.0000000 -1.0000000 )
                  (  0.0000000  1.0000000  0.0000000 )
                  ( -1.0000000  0.0000000  0.0000000 )


      isym = 34     inv. 180 deg rotation - cart. axis [-1,0,1]  

 cryst.   s(34) = (    -1          0          0      )
                  (    -1          1          0      )
                  (    -1          0          1      )

 cart.    s(34) = (  0.0000000  0.0000000  1.0000000 )
                  (  0.0000000  1.0000000  0.0000000 )
                  (  1.0000000  0.0000000  0.0000000 )


      isym = 35     inv.  90 deg rotation - cart. axis [0,1,0]   

 cryst.   s(35) = (     0         -1          1      )
                  (     1         -1          0      )
                  (     0         -1          0      )

 cart.    s(35) = (  0.0000000  0.0000000 -1.0000000 )
                  (  0.0000000 -1.0000000  0.0000000 )
                  (  1.0000000  0.0000000  0.0000000 )


      isym = 36     inv.  90 deg rotation - cart. axis [0,-1,0]  

 cryst.   s(36) = (     0          1         -1      )
                  (     0          0         -1      )
                  (     1          0         -1      )

 cart.    s(36) = (  0.0000000  0.0000000  1.0000000 )
                  (  0.0000000 -1.0000000  0.0000000 )
                  ( -1.0000000  0.0000000  0.0000000 )


      isym = 37     inv. 180 deg rotation - cart. axis [0,1,1]   

 cryst.   s(37) = (     1         -1          0      )
                  (     0         -1          0      )
                  (     0         -1          1      )

 cart.    s(37) = (  1.0000000  0.0000000  0.0000000 )
                  (  0.0000000  0.0000000 -1.0000000 )
                  (  0.0000000 -1.0000000  0.0000000 )


      isym = 38     inv. 180 deg rotation - cart. axis [0,1,-1]  

 cryst.   s(38) = (     0          0          1      )
                  (     0          1          0      )
                  (     1          0          0      )

 cart.    s(38) = (  1.0000000  0.0000000  0.0000000 )
                  (  0.0000000  0.0000000  1.0000000 )
                  (  0.0000000  1.0000000  0.0000000 )


      isym = 39     inv.  90 deg rotation - cart. axis [-1,0,0]  

 cryst.   s(39) = (     0          0         -1      )
                  (     1          0         -1      )
                  (     0          1         -1      )

 cart.    s(39) = ( -1.0000000  0.0000000  0.0000000 )
                  (  0.0000000  0.0000000 -1.0000000 )
                  (  0.0000000  1.0000000  0.0000000 )


      isym = 40     inv.  90 deg rotation - cart. axis [1,0,0]   

 cryst.   s(40) = (    -1          1          0      )
                  (    -1          0          1      )
                  (    -1          0          0      )

 cart.    s(40) = ( -1.0000000  0.0000000  0.0000000 )
                  (  0.0000000  0.0000000  1.0000000 )
                  (  0.0000000 -1.0000000  0.0000000 )


      isym = 41     inv. 120 deg rotation - cart. axis [-1,-1,-1]

 cryst.   s(41) = (     1          0         -1      )
                  (     1         -1          0      )
                  (     1          0          0      )

 cart.    s(41) = (  0.0000000 -1.0000000  0.0000000 )
                  (  0.0000000  0.0000000 -1.0000000 )
                  ( -1.0000000  0.0000000  0.0000000 )


      isym = 42     inv. 120 deg rotation - cart. axis [-1,1,1]  

 cryst.   s(42) = (     0         -1          0      )
                  (     0          0         -1      )
                  (    -1          0          0      )

 cart.    s(42) = (  0.0000000  1.0000000  0.0000000 )
                  (  0.0000000  0.0000000 -1.0000000 )
                  (  1.0000000  0.0000000  0.0000000 )


      isym = 43     inv. 120 deg rotation - cart. axis [1,1,-1]  

 cryst.   s(43) = (    -1          0          1      )
                  (     0          0          1      )
                  (     0         -1          1      )

 cart.    s(43) = (  0.0000000 -1.0000000  0.0000000 )
                  (  0.0000000  0.0000000  1.0000000 )
                  (  1.0000000  0.0000000  0.0000000 )


      isym = 44     inv. 120 deg rotation - cart. axis [1,-1,1]  

 cryst.   s(44) = (     0          1          0      )
                  (    -1          1          0      )
                  (     0          1         -1      )

 cart.    s(44) = (  0.0000000  1.0000000  0.0000000 )
                  (  0.0000000  0.0000000  1.0000000 )
                  ( -1.0000000  0.0000000  0.0000000 )


      isym = 45     inv. 120 deg rotation - cart. axis [1,1,1]   

 cryst.   s(45) = (     0          0          1      )
                  (     0         -1          1      )
                  (    -1          0          1      )

 cart.    s(45) = (  0.0000000  0.0000000 -1.0000000 )
                  ( -1.0000000  0.0000000  0.0000000 )
                  (  0.0000000 -1.0000000  0.0000000 )


      isym = 46     inv. 120 deg rotation - cart. axis [-1,1,-1] 

 cryst.   s(46) = (     1         -1          0      )
                  (     1          0          0      )
                  (     1          0         -1      )

 cart.    s(46) = (  0.0000000  0.0000000 -1.0000000 )
                  (  1.0000000  0.0000000  0.0000000 )
                  (  0.0000000  1.0000000  0.0000000 )


      isym = 47     inv. 120 deg rotation - cart. axis [1,-1,-1] 

 cryst.   s(47) = (     0          0         -1      )
                  (    -1          0          0      )
                  (     0         -1          0      )

 cart.    s(47) = (  0.0000000  0.0000000  1.0000000 )
                  (  1.0000000  0.0000000  0.0000000 )
                  (  0.0000000 -1.0000000  0.0000000 )


      isym = 48     inv. 120 deg rotation - cart. axis [-1,-1,1] 

 cryst.   s(48) = (    -1          1          0      )
                  (     0          1         -1      )
                  (     0          1          0      )

 cart.    s(48) = (  0.0000000  0.0000000  1.0000000 )
                  ( -1.0000000  0.0000000  0.0000000 )
                  (  0.0000000  1.0000000  0.0000000 )


     point group O_h (m-3m) 
     there are 10 classes
     the character table:

       E     8C3   3C2   6C4   6C2'  i     8S6   3s_h  6S4   6s_d 
A_1g   1.00  1.00  1.00  1.00  1.00  1.00  1.00  1.00  1.00  1.00
A_2g   1.00  1.00  1.00 -1.00 -1.00  1.00  1.00  1.00 -1.00 -1.00
E_g    2.00 -1.00  2.00  0.00  0.00  2.00 -1.00  2.00  0.00  0.00
T_1g   3.00  0.00 -1.00  1.00 -1.00  3.00  0.00 -1.00  1.00 -1.00
T_2g   3.00  0.00 -1.00 -1.00  1.00  3.00  0.00 -1.00 -1.00  1.00
A_1u   1.00  1.00  1.00  1.00  1.00 -1.00 -1.00 -1.00 -1.00 -1.00
A_2u   1.00  1.00  1.00 -1.00 -1.00 -1.00 -1.00 -1.00  1.00  1.00
E_u    2.00 -1.00  2.00  0.00  0.00 -2.00  1.00 -2.00  0.00  0.00
T_1u   3.00  0.00 -1.00  1.00 -1.00 -3.00  0.00  1.00 -1.00  1.00
T_2u   3.00  0.00 -1.00 -1.00  1.00 -3.00  0.00  1.00  1.00 -1.00

     the symmetry operations in each class and the name of the first element:

     E        1
          identity                                               
     8C3     17   19   20   18   24   21   22   23
          120 deg rotation - cart. axis [-1,-1,-1]               
     3C2      2    4    3
          180 deg rotation - cart. axis [0,0,1]                  
     6C4      7    8   15   16   12   11
           90 deg rotation - cart. axis [0,0,-1]                 
     6C2'     5    6   14   13   10    9
          180 deg rotation - cart. axis [1,1,0]                  
     i       25
          inversion                                              
     8S6     41   43   44   42   48   45   46   47
          inv. 120 deg rotation - cart. axis [-1,-1,-1]          
     3s_h    26   28   27
          inv. 180 deg rotation - cart. axis [0,0,1]             
     6S4     31   32   39   40   36   35
          inv.  90 deg rotation - cart. axis [0,0,-1]            
     6s_d    29   30   38   37   34   33
          inv. 180 deg rotation - cart. axis [1,1,0]             

   Cartesian axes

     site n.     atom                  positions (alat units)
         1           Ce  tau(   1) = (   0.0000000   0.0000000   0.0000000  )
         2           O   tau(   2) = (  -0.2500000   0.2500000   0.2500000  )
         3           O   tau(   3) = (  -0.7500000   0.7500000   0.7500000  )

   Crystallographic axes

     site n.     atom                  positions (cryst. coord.)
         1           Ce  tau(   1) = (  0.0000000  0.0000000  0.0000000  )
         2           O   tau(   2) = (  0.2500000  0.2500000  0.2500000  )
         3           O   tau(   3) = (  0.7500000  0.7500000  0.7500000  )

     number of k points=    72
                       cart. coord. in units 2pi/alat
        k(    1) = (   0.0000000   0.0000000   0.0000000), wk =   0.0011574
        k(    2) = (  -0.0833333   0.0833333  -0.0833333), wk =   0.0092593
        k(    3) = (  -0.1666667   0.1666667  -0.1666667), wk =   0.0092593
        k(    4) = (  -0.2500000   0.2500000  -0.2500000), wk =   0.0092593
        k(    5) = (  -0.3333333   0.3333333  -0.3333333), wk =   0.0092593
        k(    6) = (  -0.4166667   0.4166667  -0.4166667), wk =   0.0092593
        k(    7) = (   0.5000000  -0.5000000   0.5000000), wk =   0.0046296
        k(    8) = (   0.0000000   0.1666667   0.0000000), wk =   0.0069444
        k(    9) = (  -0.0833333   0.2500000  -0.0833333), wk =   0.0277778
        k(   10) = (  -0.1666667   0.3333333  -0.1666667), wk =   0.0277778
        k(   11) = (  -0.2500000   0.4166667  -0.2500000), wk =   0.0277778
        k(   12) = (  -0.3333333   0.5000000  -0.3333333), wk =   0.0277778
        k(   13) = (   0.5833333  -0.4166667   0.5833333), wk =   0.0277778
        k(   14) = (   0.5000000  -0.3333333   0.5000000), wk =   0.0277778
        k(   15) = (   0.4166667  -0.2500000   0.4166667), wk =   0.0277778
        k(   16) = (   0.3333333  -0.1666667   0.3333333), wk =   0.0277778
        k(   17) = (   0.2500000  -0.0833333   0.2500000), wk =   0.0277778
        k(   18) = (   0.1666667  -0.0000000   0.1666667), wk =   0.0138889
        k(   19) = (   0.0000000   0.3333333   0.0000000), wk =   0.0069444
        k(   20) = (  -0.0833333   0.4166667  -0.0833333), wk =   0.0277778
        k(   21) = (  -0.1666667   0.5000000  -0.1666667), wk =   0.0277778
        k(   22) = (  -0.2500000   0.5833333  -0.2500000), wk =   0.0277778
        k(   23) = (   0.6666667  -0.3333333   0.6666667), wk =   0.0277778
        k(   24) = (   0.5833333  -0.2500000   0.5833333), wk =   0.0277778
        k(   25) = (   0.5000000  -0.1666667   0.5000000), wk =   0.0277778
        k(   26) = (   0.4166667  -0.0833333   0.4166667), wk =   0.0277778
        k(   27) = (   0.3333333   0.0000000   0.3333333), wk =   0.0138889
        k(   28) = (   0.0000000   0.5000000   0.0000000), wk =   0.0069444
        k(   29) = (  -0.0833333   0.5833333  -0.0833333), wk =   0.0277778
        k(   30) = (  -0.1666667   0.6666667  -0.1666667), wk =   0.0277778
        k(   31) = (   0.7500000  -0.2500000   0.7500000), wk =   0.0277778
        k(   32) = (   0.6666667  -0.1666667   0.6666667), wk =   0.0277778
        k(   33) = (   0.5833333  -0.0833333   0.5833333), wk =   0.0277778
        k(   34) = (   0.5000000   0.0000000   0.5000000), wk =   0.0138889
        k(   35) = (   0.0000000   0.6666667   0.0000000), wk =   0.0069444
        k(   36) = (  -0.0833333   0.7500000  -0.0833333), wk =   0.0277778
        k(   37) = (   0.8333333  -0.1666667   0.8333333), wk =   0.0277778
        k(   38) = (   0.7500000  -0.0833333   0.7500000), wk =   0.0277778
        k(   39) = (   0.6666667  -0.0000000   0.6666667), wk =   0.0138889
        k(   40) = (   0.0000000   0.8333333   0.0000000), wk =   0.0069444
        k(   41) = (   0.9166667  -0.0833333   0.9166667), wk =   0.0277778
        k(   42) = (   0.8333333   0.0000000   0.8333333), wk =   0.0138889
        k(   43) = (   0.0000000  -1.0000000   0.0000000), wk =   0.0034722
        k(   44) = (  -0.1666667   0.3333333   0.0000000), wk =   0.0277778
        k(   45) = (  -0.2500000   0.4166667  -0.0833333), wk =   0.0555556
        k(   46) = (  -0.3333333   0.5000000  -0.1666667), wk =   0.0555556
        k(   47) = (   0.5833333  -0.4166667   0.7500000), wk =   0.0555556
        k(   48) = (   0.5000000  -0.3333333   0.6666667), wk =   0.0277778
        k(   49) = (  -0.1666667   0.5000000   0.0000000), wk =   0.0277778
        k(   50) = (  -0.2500000   0.5833333  -0.0833333), wk =   0.0555556
        k(   51) = (   0.6666667  -0.3333333   0.8333333), wk =   0.0555556
        k(   52) = (   0.5833333  -0.2500000   0.7500000), wk =   0.0555556
        k(   53) = (   0.5000000  -0.1666667   0.6666667), wk =   0.0555556
        k(   54) = (   0.4166667  -0.0833333   0.5833333), wk =   0.0555556
        k(   55) = (   0.3333333   0.0000000   0.5000000), wk =   0.0277778
        k(   56) = (  -0.1666667   0.6666667  -0.0000000), wk =   0.0277778
        k(   57) = (   0.7500000  -0.2500000   0.9166667), wk =   0.0555556
        k(   58) = (   0.6666667  -0.1666667   0.8333333), wk =   0.0555556
        k(   59) = (   0.5833333  -0.0833333   0.7500000), wk =   0.0555556
        k(   60) = (   0.5000000   0.0000000   0.6666667), wk =   0.0277778
        k(   61) = (   0.8333333  -0.1666667   1.0000000), wk =   0.0277778
        k(   62) = (   0.7500000  -0.0833333   0.9166667), wk =   0.0555556
        k(   63) = (   0.6666667   0.0000000   0.8333333), wk =   0.0277778
        k(   64) = (  -0.1666667  -1.0000000  -0.0000000), wk =   0.0138889
        k(   65) = (   0.6666667  -0.3333333   1.0000000), wk =   0.0277778
        k(   66) = (   0.5833333  -0.2500000   0.9166667), wk =   0.0555556
        k(   67) = (   0.5000000  -0.1666667   0.8333333), wk =   0.0277778
        k(   68) = (   0.6666667  -0.1666667   1.0000000), wk =   0.0277778
        k(   69) = (   0.5833333  -0.0833333   0.9166667), wk =   0.0555556
        k(   70) = (   0.5000000   0.0000000   0.8333333), wk =   0.0277778
        k(   71) = (  -0.3333333  -1.0000000   0.0000000), wk =   0.0138889
        k(   72) = (  -0.5000000  -1.0000000   0.0000000), wk =   0.0069444

                       cryst. coord.
        k(    1) = (   0.0000000   0.0000000   0.0000000), wk =   0.0011574
        k(    2) = (   0.0000000   0.0000000   0.0833333), wk =   0.0092593
        k(    3) = (   0.0000000   0.0000000   0.1666667), wk =   0.0092593
        k(    4) = (   0.0000000   0.0000000   0.2500000), wk =   0.0092593
        k(    5) = (   0.0000000   0.0000000   0.3333333), wk =   0.0092593
        k(    6) = (   0.0000000   0.0000000   0.4166667), wk =   0.0092593
        k(    7) = (   0.0000000   0.0000000  -0.5000000), wk =   0.0046296
        k(    8) = (   0.0000000   0.0833333   0.0833333), wk =   0.0069444
        k(    9) = (   0.0000000   0.0833333   0.1666667), wk =   0.0277778
        k(   10) = (   0.0000000   0.0833333   0.2500000), wk =   0.0277778
        k(   11) = (   0.0000000   0.0833333   0.3333333), wk =   0.0277778
        k(   12) = (   0.0000000   0.0833333   0.4166667), wk =   0.0277778
        k(   13) = (   0.0000000   0.0833333  -0.5000000), wk =   0.0277778
        k(   14) = (   0.0000000   0.0833333  -0.4166667), wk =   0.0277778
        k(   15) = (   0.0000000   0.0833333  -0.3333333), wk =   0.0277778
        k(   16) = (   0.0000000   0.0833333  -0.2500000), wk =   0.0277778
        k(   17) = (   0.0000000   0.0833333  -0.1666667), wk =   0.0277778
        k(   18) = (   0.0000000   0.0833333  -0.0833333), wk =   0.0138889
        k(   19) = (   0.0000000   0.1666667   0.1666667), wk =   0.0069444
        k(   20) = (   0.0000000   0.1666667   0.2500000), wk =   0.0277778
        k(   21) = (   0.0000000   0.1666667   0.3333333), wk =   0.0277778
        k(   22) = (   0.0000000   0.1666667   0.4166667), wk =   0.0277778
        k(   23) = (   0.0000000   0.1666667  -0.5000000), wk =   0.0277778
        k(   24) = (   0.0000000   0.1666667  -0.4166667), wk =   0.0277778
        k(   25) = (   0.0000000   0.1666667  -0.3333333), wk =   0.0277778
        k(   26) = (   0.0000000   0.1666667  -0.2500000), wk =   0.0277778
        k(   27) = (   0.0000000   0.1666667  -0.1666667), wk =   0.0138889
        k(   28) = (   0.0000000   0.2500000   0.2500000), wk =   0.0069444
        k(   29) = (   0.0000000   0.2500000   0.3333333), wk =   0.0277778
        k(   30) = (   0.0000000   0.2500000   0.4166667), wk =   0.0277778
        k(   31) = (   0.0000000   0.2500000  -0.5000000), wk =   0.0277778
        k(   32) = (   0.0000000   0.2500000  -0.4166667), wk =   0.0277778
        k(   33) = (   0.0000000   0.2500000  -0.3333333), wk =   0.0277778
        k(   34) = (   0.0000000   0.2500000  -0.2500000), wk =   0.0138889
        k(   35) = (   0.0000000   0.3333333   0.3333333), wk =   0.0069444
        k(   36) = (   0.0000000   0.3333333   0.4166667), wk =   0.0277778
        k(   37) = (   0.0000000   0.3333333  -0.5000000), wk =   0.0277778
        k(   38) = (   0.0000000   0.3333333  -0.4166667), wk =   0.0277778
        k(   39) = (   0.0000000   0.3333333  -0.3333333), wk =   0.0138889
        k(   40) = (   0.0000000   0.4166667   0.4166667), wk =   0.0069444
        k(   41) = (   0.0000000   0.4166667  -0.5000000), wk =   0.0277778
        k(   42) = (   0.0000000   0.4166667  -0.4166667), wk =   0.0138889
        k(   43) = (   0.0000000  -0.5000000  -0.5000000), wk =   0.0034722
        k(   44) = (   0.0833333   0.1666667   0.2500000), wk =   0.0277778
        k(   45) = (   0.0833333   0.1666667   0.3333333), wk =   0.0555556
        k(   46) = (   0.0833333   0.1666667   0.4166667), wk =   0.0555556
        k(   47) = (   0.0833333   0.1666667  -0.5000000), wk =   0.0555556
        k(   48) = (   0.0833333   0.1666667  -0.4166667), wk =   0.0277778
        k(   49) = (   0.0833333   0.2500000   0.3333333), wk =   0.0277778
        k(   50) = (   0.0833333   0.2500000   0.4166667), wk =   0.0555556
        k(   51) = (   0.0833333   0.2500000  -0.5000000), wk =   0.0555556
        k(   52) = (   0.0833333   0.2500000  -0.4166667), wk =   0.0555556
        k(   53) = (   0.0833333   0.2500000  -0.3333333), wk =   0.0555556
        k(   54) = (   0.0833333   0.2500000  -0.2500000), wk =   0.0555556
        k(   55) = (   0.0833333   0.2500000  -0.1666667), wk =   0.0277778
        k(   56) = (   0.0833333   0.3333333   0.4166667), wk =   0.0277778
        k(   57) = (   0.0833333   0.3333333  -0.5000000), wk =   0.0555556
        k(   58) = (   0.0833333   0.3333333  -0.4166667), wk =   0.0555556
        k(   59) = (   0.0833333   0.3333333  -0.3333333), wk =   0.0555556
        k(   60) = (   0.0833333   0.3333333  -0.2500000), wk =   0.0277778
        k(   61) = (   0.0833333   0.4166667  -0.5000000), wk =   0.0277778
        k(   62) = (   0.0833333   0.4166667  -0.4166667), wk =   0.0555556
        k(   63) = (   0.0833333   0.4166667  -0.3333333), wk =   0.0277778
        k(   64) = (   0.0833333  -0.5000000  -0.4166667), wk =   0.0138889
        k(   65) = (   0.1666667   0.3333333  -0.5000000), wk =   0.0277778
        k(   66) = (   0.1666667   0.3333333  -0.4166667), wk =   0.0555556
        k(   67) = (   0.1666667   0.3333333  -0.3333333), wk =   0.0277778
        k(   68) = (   0.1666667   0.4166667  -0.4166667), wk =   0.0277778
        k(   69) = (   0.1666667   0.4166667  -0.3333333), wk =   0.0555556
        k(   70) = (   0.1666667   0.4166667  -0.2500000), wk =   0.0277778
        k(   71) = (   0.1666667  -0.5000000  -0.3333333), wk =   0.0138889
        k(   72) = (   0.2500000  -0.5000000  -0.2500000), wk =   0.0069444

     Dense  grid:   105395 G-vectors     FFT dimensions: (  72,  72,  72)

     Smooth grid:    26565 G-vectors     FFT dimensions: (  45,  45,  45)

     Dynamical RAM for                 wfc:       0.10 MB

     Dynamical RAM for     wfc (w. buffer):       1.83 MB

     Dynamical RAM for           str. fact:       0.32 MB

     Dynamical RAM for           local pot:       0.00 MB

     Dynamical RAM for          nlocal pot:       0.24 MB

     Dynamical RAM for                qrad:      10.89 MB

     Dynamical RAM for          rho,v,vnew:       1.43 MB

     Dynamical RAM for               rhoin:       0.48 MB

     Dynamical RAM for            rho*nmix:       2.57 MB

     Dynamical RAM for           G-vectors:       0.62 MB

     Dynamical RAM for          h,s,v(r/c):       0.07 MB

     Dynamical RAM for          <psi|beta>:       0.01 MB

     Dynamical RAM for                 psi:       0.19 MB

     Dynamical RAM for                hpsi:       0.19 MB

     Dynamical RAM for                spsi:       0.19 MB

     Dynamical RAM for      wfcinit/wfcrot:       0.44 MB

     Dynamical RAM for           addusdens:      22.52 MB

     Dynamical RAM for          addusforce:      22.58 MB

     Dynamical RAM for         addusstress:      23.46 MB

     Estimated static dynamical RAM per process >      17.89 MB

     Estimated max dynamical RAM per process >      43.92 MB

     Estimated total dynamical RAM >       1.64 GB

     Initial potential from superposition of free atoms

     starting charge      23.9930, renormalised to      24.0000
     Starting wfcs are   40 randomized atomic wfcs
     Checking if some PAW data can be deallocated... 
       PAW data deallocated on   26 nodes for type:  1
       PAW data deallocated on   14 nodes for type:  2

     total cpu time spent up to now is        2.7 secs

     Self-consistent Calculation

     iteration #  1     ecut=    80.00 Ry     beta= 0.70
     Davidson diagonalization with overlap

---- Real-time Memory Report at c_bands before calling an iterative solver
           154 MiB given to the printing process from OS
             0 MiB allocation reported by mallinfo(arena+hblkhd)
        183421 MiB available memory on the node where the printing process lives
------------------
     ethr =  1.00E-02,  avg # of iterations =  1.0

     negative rho (up, down):  1.421E-06 0.000E+00

     total cpu time spent up to now is        3.2 secs

     total energy              =    -564.89988516 Ry
     estimated scf accuracy    <       1.58523509 Ry

     iteration #  2     ecut=    80.00 Ry     beta= 0.70
     Davidson diagonalization with overlap

---- Real-time Memory Report at c_bands before calling an iterative solver
           169 MiB given to the printing process from OS
             0 MiB allocation reported by mallinfo(arena+hblkhd)
        182524 MiB available memory on the node where the printing process lives
------------------
     ethr =  6.61E-03,  avg # of iterations =  2.0

     total cpu time spent up to now is        3.9 secs

     total energy              =    -558.74896880 Ry
     estimated scf accuracy    <      88.87370330 Ry

     iteration #  3     ecut=    80.00 Ry     beta= 0.70
     Davidson diagonalization with overlap

---- Real-time Memory Report at c_bands before calling an iterative solver
           171 MiB given to the printing process from OS
             0 MiB allocation reported by mallinfo(arena+hblkhd)
        182521 MiB available memory on the node where the printing process lives
------------------
     ethr =  6.61E-03,  avg # of iterations =  2.0

     total cpu time spent up to now is        4.6 secs

     total energy              =    -565.91682461 Ry
     estimated scf accuracy    <       0.62862925 Ry

     iteration #  4     ecut=    80.00 Ry     beta= 0.70
     Davidson diagonalization with overlap

---- Real-time Memory Report at c_bands before calling an iterative solver
           175 MiB given to the printing process from OS
             0 MiB allocation reported by mallinfo(arena+hblkhd)
        182512 MiB available memory on the node where the printing process lives
------------------
     ethr =  2.62E-03,  avg # of iterations =  2.0

     total cpu time spent up to now is        5.2 secs

     total energy              =    -565.89344299 Ry
     estimated scf accuracy    <       0.44061200 Ry

     iteration #  5     ecut=    80.00 Ry     beta= 0.70
     Davidson diagonalization with overlap

---- Real-time Memory Report at c_bands before calling an iterative solver
           177 MiB given to the printing process from OS
             0 MiB allocation reported by mallinfo(arena+hblkhd)
        182512 MiB available memory on the node where the printing process lives
------------------
     ethr =  1.84E-03,  avg # of iterations =  1.0

     total cpu time spent up to now is        5.7 secs

     total energy              =    -565.87016637 Ry
     estimated scf accuracy    <       0.24633670 Ry

     iteration #  6     ecut=    80.00 Ry     beta= 0.70
     Davidson diagonalization with overlap

---- Real-time Memory Report at c_bands before calling an iterative solver
           179 MiB given to the printing process from OS
             0 MiB allocation reported by mallinfo(arena+hblkhd)
        182512 MiB available memory on the node where the printing process lives
------------------
     ethr =  1.03E-03,  avg # of iterations =  1.0

     total cpu time spent up to now is        6.3 secs

     total energy              =    -565.83004054 Ry
     estimated scf accuracy    <       0.13721769 Ry

     iteration #  7     ecut=    80.00 Ry     beta= 0.70
     Davidson diagonalization with overlap

---- Real-time Memory Report at c_bands before calling an iterative solver
           181 MiB given to the printing process from OS
             0 MiB allocation reported by mallinfo(arena+hblkhd)
        182512 MiB available memory on the node where the printing process lives
------------------
     ethr =  5.72E-04,  avg # of iterations =  1.0

     total cpu time spent up to now is        6.8 secs

     total energy              =    -565.85013611 Ry
     estimated scf accuracy    <       0.00559227 Ry

     iteration #  8     ecut=    80.00 Ry     beta= 0.70
     Davidson diagonalization with overlap

---- Real-time Memory Report at c_bands before calling an iterative solver
           184 MiB given to the printing process from OS
             0 MiB allocation reported by mallinfo(arena+hblkhd)
        182512 MiB available memory on the node where the printing process lives
------------------
     ethr =  2.33E-05,  avg # of iterations =  3.8

     total cpu time spent up to now is        7.5 secs

     total energy              =    -565.86099828 Ry
     estimated scf accuracy    <       0.04569381 Ry

     iteration #  9     ecut=    80.00 Ry     beta= 0.70
     Davidson diagonalization with overlap

---- Real-time Memory Report at c_bands before calling an iterative solver
           185 MiB given to the printing process from OS
             0 MiB allocation reported by mallinfo(arena+hblkhd)
        182510 MiB available memory on the node where the printing process lives
------------------
     ethr =  2.33E-05,  avg # of iterations =  1.1

     total cpu time spent up to now is        8.1 secs

     total energy              =    -565.83872036 Ry
     estimated scf accuracy    <       0.07198145 Ry

     iteration # 10     ecut=    80.00 Ry     beta= 0.70
     Davidson diagonalization with overlap

---- Real-time Memory Report at c_bands before calling an iterative solver
           187 MiB given to the printing process from OS
             0 MiB allocation reported by mallinfo(arena+hblkhd)
        182509 MiB available memory on the node where the printing process lives
------------------
     ethr =  2.33E-05,  avg # of iterations =  2.7

     total cpu time spent up to now is        8.8 secs

     total energy              =    -565.84255740 Ry
     estimated scf accuracy    <       0.00986807 Ry

     iteration # 11     ecut=    80.00 Ry     beta= 0.70
     Davidson diagonalization with overlap

---- Real-time Memory Report at c_bands before calling an iterative solver
           188 MiB given to the printing process from OS
             0 MiB allocation reported by mallinfo(arena+hblkhd)
        182508 MiB available memory on the node where the printing process lives
------------------
     ethr =  2.33E-05,  avg # of iterations =  1.3

     total cpu time spent up to now is        9.3 secs

     total energy              =    -565.84313657 Ry
     estimated scf accuracy    <       0.00407748 Ry

     iteration # 12     ecut=    80.00 Ry     beta= 0.70
     Davidson diagonalization with overlap

---- Real-time Memory Report at c_bands before calling an iterative solver
           190 MiB given to the printing process from OS
             0 MiB allocation reported by mallinfo(arena+hblkhd)
        182509 MiB available memory on the node where the printing process lives
------------------
     ethr =  1.70E-05,  avg # of iterations =  1.0

     total cpu time spent up to now is        9.8 secs

     total energy              =    -565.84299174 Ry
     estimated scf accuracy    <       0.00501653 Ry

     iteration # 13     ecut=    80.00 Ry     beta= 0.70
     Davidson diagonalization with overlap

---- Real-time Memory Report at c_bands before calling an iterative solver
           192 MiB given to the printing process from OS
             0 MiB allocation reported by mallinfo(arena+hblkhd)
        182509 MiB available memory on the node where the printing process lives
------------------
     ethr =  1.70E-05,  avg # of iterations =  1.0

     total cpu time spent up to now is       10.4 secs

     total energy              =    -565.84231032 Ry
     estimated scf accuracy    <       0.00384529 Ry

     iteration # 14     ecut=    80.00 Ry     beta= 0.70
     Davidson diagonalization with overlap

---- Real-time Memory Report at c_bands before calling an iterative solver
           193 MiB given to the printing process from OS
             0 MiB allocation reported by mallinfo(arena+hblkhd)
        182509 MiB available memory on the node where the printing process lives
------------------
     ethr =  1.60E-05,  avg # of iterations =  1.0

     total cpu time spent up to now is       10.9 secs

     total energy              =    -565.84234709 Ry
     estimated scf accuracy    <       0.00049653 Ry

     iteration # 15     ecut=    80.00 Ry     beta= 0.70
     Davidson diagonalization with overlap

---- Real-time Memory Report at c_bands before calling an iterative solver
           194 MiB given to the printing process from OS
             0 MiB allocation reported by mallinfo(arena+hblkhd)
        182507 MiB available memory on the node where the printing process lives
------------------
     ethr =  2.07E-06,  avg # of iterations =  2.4

     total cpu time spent up to now is       11.6 secs

     total energy              =    -565.84251481 Ry
     estimated scf accuracy    <       0.00036168 Ry

     iteration # 16     ecut=    80.00 Ry     beta= 0.70
     Davidson diagonalization with overlap

---- Real-time Memory Report at c_bands before calling an iterative solver
           196 MiB given to the printing process from OS
             0 MiB allocation reported by mallinfo(arena+hblkhd)
        182507 MiB available memory on the node where the printing process lives
------------------
     ethr =  1.51E-06,  avg # of iterations =  1.0

     total cpu time spent up to now is       12.1 secs

     total energy              =    -565.84239552 Ry
     estimated scf accuracy    <       0.00046235 Ry

     iteration # 17     ecut=    80.00 Ry     beta= 0.70
     Davidson diagonalization with overlap

---- Real-time Memory Report at c_bands before calling an iterative solver
           197 MiB given to the printing process from OS
             0 MiB allocation reported by mallinfo(arena+hblkhd)
        182507 MiB available memory on the node where the printing process lives
------------------
     ethr =  1.51E-06,  avg # of iterations =  1.0

     total cpu time spent up to now is       12.6 secs

     total energy              =    -565.84246212 Ry
     estimated scf accuracy    <       0.00002552 Ry

     iteration # 18     ecut=    80.00 Ry     beta= 0.70
     Davidson diagonalization with overlap

---- Real-time Memory Report at c_bands before calling an iterative solver
           198 MiB given to the printing process from OS
             0 MiB allocation reported by mallinfo(arena+hblkhd)
        182507 MiB available memory on the node where the printing process lives
------------------
     ethr =  1.06E-07,  avg # of iterations =  2.2

     total cpu time spent up to now is       13.2 secs

     total energy              =    -565.84247326 Ry
     estimated scf accuracy    <       0.00001998 Ry

     iteration # 19     ecut=    80.00 Ry     beta= 0.70
     Davidson diagonalization with overlap

---- Real-time Memory Report at c_bands before calling an iterative solver
           199 MiB given to the printing process from OS
             0 MiB allocation reported by mallinfo(arena+hblkhd)
        182508 MiB available memory on the node where the printing process lives
------------------
     ethr =  8.33E-08,  avg # of iterations =  1.0

     total cpu time spent up to now is       13.8 secs

     total energy              =    -565.84247150 Ry
     estimated scf accuracy    <       0.00002556 Ry

     iteration # 20     ecut=    80.00 Ry     beta= 0.70
     Davidson diagonalization with overlap

---- Real-time Memory Report at c_bands before calling an iterative solver
           200 MiB given to the printing process from OS
             0 MiB allocation reported by mallinfo(arena+hblkhd)
        182508 MiB available memory on the node where the printing process lives
------------------
     ethr =  8.33E-08,  avg # of iterations =  1.0

     total cpu time spent up to now is       14.3 secs

     total energy              =    -565.84246912 Ry
     estimated scf accuracy    <       0.00001549 Ry

     iteration # 21     ecut=    80.00 Ry     beta= 0.70
     Davidson diagonalization with overlap

---- Real-time Memory Report at c_bands before calling an iterative solver
           202 MiB given to the printing process from OS
             0 MiB allocation reported by mallinfo(arena+hblkhd)
        182506 MiB available memory on the node where the printing process lives
------------------
     ethr =  6.45E-08,  avg # of iterations =  1.0

     total cpu time spent up to now is       14.9 secs

     total energy              =    -565.84246981 Ry
     estimated scf accuracy    <       0.00000414 Ry

     iteration # 22     ecut=    80.00 Ry     beta= 0.70
     Davidson diagonalization with overlap

---- Real-time Memory Report at c_bands before calling an iterative solver
           203 MiB given to the printing process from OS
             0 MiB allocation reported by mallinfo(arena+hblkhd)
        182507 MiB available memory on the node where the printing process lives
------------------
     ethr =  1.72E-08,  avg # of iterations =  1.0

     total cpu time spent up to now is       15.5 secs

     total energy              =    -565.84246853 Ry
     estimated scf accuracy    <       0.00000473 Ry

     iteration # 23     ecut=    80.00 Ry     beta= 0.70
     Davidson diagonalization with overlap

---- Real-time Memory Report at c_bands before calling an iterative solver
           204 MiB given to the printing process from OS
             0 MiB allocation reported by mallinfo(arena+hblkhd)
        182508 MiB available memory on the node where the printing process lives
------------------
     ethr =  1.72E-08,  avg # of iterations =  2.0

     total cpu time spent up to now is       16.0 secs

     total energy              =    -565.84246912 Ry
     estimated scf accuracy    <       0.00000011 Ry

     iteration # 24     ecut=    80.00 Ry     beta= 0.70
     Davidson diagonalization with overlap

---- Real-time Memory Report at c_bands before calling an iterative solver
           205 MiB given to the printing process from OS
             0 MiB allocation reported by mallinfo(arena+hblkhd)
        182507 MiB available memory on the node where the printing process lives
------------------
     ethr =  4.72E-10,  avg # of iterations =  4.9

     total cpu time spent up to now is       16.7 secs

     total energy              =    -565.84246916 Ry
     estimated scf accuracy    <       0.00000040 Ry

     iteration # 25     ecut=    80.00 Ry     beta= 0.70
     Davidson diagonalization with overlap

---- Real-time Memory Report at c_bands before calling an iterative solver
           206 MiB given to the printing process from OS
             0 MiB allocation reported by mallinfo(arena+hblkhd)
        182507 MiB available memory on the node where the printing process lives
------------------
     ethr =  4.72E-10,  avg # of iterations =  2.0

     total cpu time spent up to now is       17.3 secs

     total energy              =    -565.84246917 Ry
     estimated scf accuracy    <       0.00000009 Ry

     iteration # 26     ecut=    80.00 Ry     beta= 0.70
     Davidson diagonalization with overlap

---- Real-time Memory Report at c_bands before calling an iterative solver
           206 MiB given to the printing process from OS
             0 MiB allocation reported by mallinfo(arena+hblkhd)
        182507 MiB available memory on the node where the printing process lives
------------------
     ethr =  3.80E-10,  avg # of iterations =  1.0

     total cpu time spent up to now is       17.9 secs

     total energy              =    -565.84246918 Ry
     estimated scf accuracy    <          6.4E-09 Ry

     iteration # 27     ecut=    80.00 Ry     beta= 0.70
     Davidson diagonalization with overlap

---- Real-time Memory Report at c_bands before calling an iterative solver
           208 MiB given to the printing process from OS
             0 MiB allocation reported by mallinfo(arena+hblkhd)
        182506 MiB available memory on the node where the printing process lives
------------------
     ethr =  2.65E-11,  avg # of iterations =  4.3

     total cpu time spent up to now is       18.6 secs

     total energy              =    -565.84246918 Ry
     estimated scf accuracy    <          8.4E-10 Ry

     iteration # 28     ecut=    80.00 Ry     beta= 0.70
     Davidson diagonalization with overlap

---- Real-time Memory Report at c_bands before calling an iterative solver
           209 MiB given to the printing process from OS
             0 MiB allocation reported by mallinfo(arena+hblkhd)
        182506 MiB available memory on the node where the printing process lives
------------------
     ethr =  3.50E-12,  avg # of iterations =  3.1

     total cpu time spent up to now is       19.1 secs

     total energy              =    -565.84246918 Ry
     estimated scf accuracy    <          8.6E-10 Ry

     iteration # 29     ecut=    80.00 Ry     beta= 0.70
     Davidson diagonalization with overlap

---- Real-time Memory Report at c_bands before calling an iterative solver
           210 MiB given to the printing process from OS
             0 MiB allocation reported by mallinfo(arena+hblkhd)
        182506 MiB available memory on the node where the printing process lives
------------------
     ethr =  3.50E-12,  avg # of iterations =  1.9

     total cpu time spent up to now is       19.7 secs

     total energy              =    -565.84246918 Ry
     estimated scf accuracy    <          1.1E-11 Ry

     iteration # 30     ecut=    80.00 Ry     beta= 0.70
     Davidson diagonalization with overlap

---- Real-time Memory Report at c_bands before calling an iterative solver
           210 MiB given to the printing process from OS
             0 MiB allocation reported by mallinfo(arena+hblkhd)
        182507 MiB available memory on the node where the printing process lives
------------------
     ethr =  1.00E-13,  avg # of iterations =  4.8

     total cpu time spent up to now is       20.4 secs

     total energy              =    -565.84246918 Ry
     estimated scf accuracy    <          3.7E-11 Ry

     iteration # 31     ecut=    80.00 Ry     beta= 0.70
     Davidson diagonalization with overlap

---- Real-time Memory Report at c_bands before calling an iterative solver
           211 MiB given to the printing process from OS
             0 MiB allocation reported by mallinfo(arena+hblkhd)
        182507 MiB available memory on the node where the printing process lives
------------------
     ethr =  1.00E-13,  avg # of iterations =  2.0

     total cpu time spent up to now is       21.0 secs

     total energy              =    -565.84246918 Ry
     estimated scf accuracy    <          7.6E-14 Ry

     iteration # 32     ecut=    80.00 Ry     beta= 0.70
     Davidson diagonalization with overlap

---- Real-time Memory Report at c_bands before calling an iterative solver
           212 MiB given to the printing process from OS
             0 MiB allocation reported by mallinfo(arena+hblkhd)
        182507 MiB available memory on the node where the printing process lives
------------------
     ethr =  1.00E-13,  avg # of iterations =  1.0

     total cpu time spent up to now is       21.6 secs

     total energy              =    -565.84246918 Ry
     estimated scf accuracy    <          5.4E-14 Ry

     iteration # 33     ecut=    80.00 Ry     beta= 0.70
     Davidson diagonalization with overlap

---- Real-time Memory Report at c_bands before calling an iterative solver
           213 MiB given to the printing process from OS
             0 MiB allocation reported by mallinfo(arena+hblkhd)
        182507 MiB available memory on the node where the printing process lives
------------------
     ethr =  1.00E-13,  avg # of iterations =  1.0

     total cpu time spent up to now is       22.2 secs

     total energy              =    -565.84246918 Ry
     estimated scf accuracy    <          8.7E-14 Ry

     iteration # 34     ecut=    80.00 Ry     beta= 0.70
     Davidson diagonalization with overlap

---- Real-time Memory Report at c_bands before calling an iterative solver
           214 MiB given to the printing process from OS
             0 MiB allocation reported by mallinfo(arena+hblkhd)
        182507 MiB available memory on the node where the printing process lives
------------------
     ethr =  1.00E-13,  avg # of iterations =  1.0

     total cpu time spent up to now is       22.7 secs

     End of self-consistent calculation

          k = 0.0000 0.0000 0.0000 (  3383 PWs)   bands (ev):

   -22.0503  -5.8136  -4.8565  -4.2263  -4.2263  -4.2263   6.7563   6.7563
     6.7563   9.8824   9.8824   9.8824  12.5925  12.5925  12.5925  12.8145
    13.2193  13.2193  13.2193

     occupation numbers 
     1.0000   1.0000   1.0000   1.0000   1.0000   1.0000   1.0000   1.0000
     1.0000   1.0000   1.0000   1.0000   0.0000   0.0000   0.0000   0.0000
     0.0000   0.0000   0.0000

          k =-0.0833 0.0833-0.0833 (  3356 PWs)   bands (ev):

   -22.0386  -6.0767  -4.9073  -4.2414  -4.2414  -3.9535   6.8196   6.8196
     6.9264   9.8161   9.8563   9.8563  12.5871  12.5871  12.5931  12.8235
    13.1553  13.1762  13.1762

     occupation numbers 
     1.0000   1.0000   1.0000   1.0000   1.0000   1.0000   1.0000   1.0000
     1.0000   1.0000   1.0000   1.0000   0.0000   0.0000   0.0000   0.0000
     0.0000   0.0000   0.0000

          k =-0.1667 0.1667-0.1667 (  3341 PWs)   bands (ev):

   -22.0063  -6.5771  -5.0641  -4.2822  -4.2822  -3.3982   6.9904   6.9904
     7.3862   9.6563   9.7904   9.7904  12.5679  12.5679  12.5946  12.8471
    13.0009  13.0908  13.0908

     occupation numbers 
     1.0000   1.0000   1.0000   1.0000   1.0000   1.0000   1.0000   1.0000
     1.0000   1.0000   1.0000   1.0000   0.0000   0.0000   0.0000   0.0000
     0.0000   0.0000   0.0000

          k =-0.2500 0.2500-0.2500 (  3353 PWs)   bands (ev):

   -21.9616  -7.0709  -5.2693  -4.3366  -4.3366  -2.8167   7.2161   7.2161
     8.0012   9.4868   9.7180   9.7180  12.5334  12.5334  12.5968  12.7579
    12.9372  13.0349  13.0349

     occupation numbers 
     1.0000   1.0000   1.0000   1.0000   1.0000   1.0000   1.0000   1.0000
     1.0000   1.0000   1.0000   1.0000   0.0000   0.0000   0.0000   0.0000
     0.0000   0.0000   0.0000

          k =-0.3333 0.3333-0.3333 (  3356 PWs)   bands (ev):

   -21.9162  -7.4703  -5.4593  -4.3898  -4.3898  -2.3222   7.4260   7.4260
     8.5937   9.3742   9.6749   9.6749  12.4954  12.4954  12.5415  12.5989
    13.0155  13.0315  13.0315

     occupation numbers 
     1.0000   1.0000   1.0000   1.0000   1.0000   1.0000   1.0000   1.0000
     1.0000   1.0000   1.0000   1.0000   0.0000   0.0000   0.0000   0.0000
     0.0000   0.0000   0.0000

          k =-0.4167 0.4167-0.4167 (  3344 PWs)   bands (ev):

   -21.8825  -7.7284  -5.5895  -4.4279  -4.4279  -1.9902   7.5636   7.5636
     9.0126   9.3198   9.6691   9.6691  12.3629  12.4695  12.4695  12.6005
    13.0562  13.0562  13.1021

     occupation numbers 
     1.0000   1.0000   1.0000   1.0000   1.0000   1.0000   1.0000   1.0000
     1.0000   1.0000   1.0000   1.0000   0.0000   0.0000   0.0000   0.0000
     0.0000   0.0000   0.0000

          k = 0.5000-0.5000 0.5000 (  3316 PWs)   bands (ev):

   -21.8700  -7.8175  -5.6355  -4.4417  -4.4417  -1.8730   7.6095   7.6095
     9.2017   9.2643   9.6737   9.6737  12.2937  12.4608  12.4608  12.6011
    13.0708  13.0708  13.1408

     occupation numbers 
     1.0000   1.0000   1.0000   1.0000   1.0000   1.0000   1.0000   1.0000
     1.0000   1.0000   1.0000   1.0000   0.0000   0.0000   0.0000   0.0000
     0.0000   0.0000   0.0000

          k = 0.0000 0.1667 0.0000 (  3347 PWs)   bands (ev):

   -22.0347  -6.1499  -4.9104  -4.2651  -4.2651  -3.8537   6.8628   6.8628
     6.9434   9.6187   9.9342   9.9342  12.5707  12.5972  12.5972  12.8269
    13.0918  13.1866  13.1866

     occupation numbers 
     1.0000   1.0000   1.0000   1.0000   1.0000   1.0000   1.0000   1.0000
     1.0000   1.0000   1.0000   1.0000   0.0000   0.0000   0.0000   0.0000
     0.0000   0.0000   0.0000

          k =-0.0833 0.2500-0.0833 (  3350 PWs)   bands (ev):

   -22.0092  -6.5312  -5.0638  -4.3129  -4.2342  -3.4481   6.9998   7.0183
     7.2977   9.3526   9.9400   9.9548  12.5455  12.5940  12.6005  12.8488
    12.9776  13.1028  13.1279

     occupation numbers 
     1.0000   1.0000   1.0000   1.0000   1.0000   1.0000   1.0000   1.0000
     1.0000   1.0000   1.0000   1.0000   0.0000   0.0000   0.0000   0.0000
     0.0000   0.0000   0.0000

          k =-0.1667 0.3333-0.1667 (  3349 PWs)   bands (ev):

   -21.9687  -6.9757  -5.3427  -4.3712  -4.1605  -2.9520   7.2142   7.2377
     7.8641   9.1140   9.8925   9.9264  12.5112  12.5694  12.6016  12.8267
    12.9138  12.9851  13.0659

     occupation numbers 
     1.0000   1.0000   1.0000   1.0000   1.0000   1.0000   1.0000   1.0000
     1.0000   1.0000   1.0000   1.0000   0.0000   0.0000   0.0000   0.0000
     0.0000   0.0000   0.0000

          k =-0.2500 0.4167-0.2500 (  3348 PWs)   bands (ev):

   -21.9234  -7.3658  -5.6179  -4.4239  -4.1229  -2.4800   7.4444   7.4566
     8.4627   8.9792   9.8480   9.8677  12.4767  12.5194  12.6017  12.6430
    12.9357  13.0007  13.0428

     occupation numbers 
     1.0000   1.0000   1.0000   1.0000   1.0000   1.0000   1.0000   1.0000
     1.0000   1.0000   1.0000   1.0000   0.0000   0.0000   0.0000   0.0000
     0.0000   0.0000   0.0000

          k =-0.3333 0.5000-0.3333 (  3333 PWs)   bands (ev):

   -21.8857  -7.6438  -5.8248  -4.4577  -4.1145  -2.1236   7.6121   7.6200
     8.8479   9.0458   9.7895   9.8448  12.4097  12.4567  12.5156  12.6018
    12.9647  13.0462  13.0911

     occupation numbers 
     1.0000   1.0000   1.0000   1.0000   1.0000   1.0000   1.0000   1.0000
     1.0000   1.0000   1.0000   1.0000   0.0000   0.0000   0.0000   0.0000
     0.0000   0.0000   0.0000

          k = 0.5833-0.4167 0.5833 (  3332 PWs)   bands (ev):

   -21.8660  -7.7751  -5.9326  -4.4644  -4.1158  -1.9500   7.6838   7.7003
     8.9384   9.2269   9.6879   9.8918  12.3091  12.4560  12.4791  12.6021
    13.0055  13.0407  13.1525

     occupation numbers 
     1.0000   1.0000   1.0000   1.0000   1.0000   1.0000   1.0000   1.0000
     1.0000   1.0000   1.0000   1.0000   0.0000   0.0000   0.0000   0.0000
     0.0000   0.0000   0.0000

          k = 0.5000-0.3333 0.5000 (  3336 PWs)   bands (ev):

   -21.8702  -7.7439  -5.9289  -4.4425  -4.1143  -1.9932   7.6655   7.6868
     8.9788   9.1790   9.5724   9.9682  12.3297  12.4710  12.4725  12.6025
    13.0088  13.0271  13.1389

     occupation numbers 
     1.0000   1.0000   1.0000   1.0000   1.0000   1.0000   1.0000   1.0000
     1.0000   1.0000   1.0000   1.0000   0.0000   0.0000   0.0000   0.0000
     0.0000   0.0000   0.0000

          k = 0.4167-0.2500 0.4167 (  3343 PWs)   bands (ev):

   -21.8969  -7.5544  -5.8139  -4.3973  -4.1082  -2.2466   7.5641   7.5671
     8.7934   9.1018   9.4932  10.0282  12.4342  12.5029  12.5218  12.6032
    12.9685  13.0194  13.0654

     occupation numbers 
     1.0000   1.0000   1.0000   1.0000   1.0000   1.0000   1.0000   1.0000
     1.0000   1.0000   1.0000   1.0000   0.0000   0.0000   0.0000   0.0000
     0.0000   0.0000   0.0000

          k = 0.3333-0.1667 0.3333 (  3357 PWs)   bands (ev):

   -21.9385  -7.2306  -5.6005  -4.3400  -4.1083  -2.6642   7.3515   7.3887
     8.2724   9.2079   9.5029  10.0565  12.4859  12.5398  12.6048  12.7076
    12.9556  12.9601  13.0357

     occupation numbers 
     1.0000   1.0000   1.0000   1.0000   1.0000   1.0000   1.0000   1.0000
     1.0000   1.0000   1.0000   1.0000   0.0000   0.0000   0.0000   0.0000
     0.0000   0.0000   0.0000

          k = 0.2500-0.0833 0.2500 (  3341 PWs)   bands (ev):

   -21.9836  -6.8154  -5.3205  -4.2855  -4.1369  -3.1681   7.1035   7.1692
     7.6680   9.4003   9.5985  10.0490  12.5295  12.5680  12.6060  12.8608
    12.9328  12.9993  13.0785

     occupation numbers 
     1.0000   1.0000   1.0000   1.0000   1.0000   1.0000   1.0000   1.0000
     1.0000   1.0000   1.0000   1.0000   0.0000   0.0000   0.0000   0.0000
     0.0000   0.0000   0.0000

          k = 0.1667-0.0000 0.1667 (  3351 PWs)   bands (ev):

   -22.0200  -6.3803  -5.0428  -4.2491  -4.2107  -3.6461   6.9066   6.9583
     7.1704   9.6316   9.7331   9.9860  12.5652  12.5825  12.6016  12.8389
    13.0584  13.0924  13.1553

     occupation numbers 
     1.0000   1.0000   1.0000   1.0000   1.0000   1.0000   1.0000   1.0000
     1.0000   1.0000   1.0000   1.0000   0.0000   0.0000   0.0000   0.0000
     0.0000   0.0000   0.0000

          k = 0.0000 0.3333 0.0000 (  3339 PWs)   bands (ev):

   -21.9916  -6.7491  -5.0527  -4.3686  -4.3686  -3.1506   7.1686   7.1686
     7.4671   8.9425  10.0619  10.0619  12.5152  12.6076  12.6076  12.8697
    12.8771  13.0932  13.0932

     occupation numbers 
     1.0000   1.0000   1.0000   1.0000   1.0000   1.0000   1.0000   1.0000
     1.0000   1.0000   1.0000   1.0000   0.0000   0.0000   0.0000   0.0000
     0.0000   0.0000   0.0000

          k =-0.0833 0.4167-0.0833 (  3350 PWs)   bands (ev):

   -21.9579  -7.0745  -5.3174  -4.4333  -4.2567  -2.7821   7.3842   7.3942
     7.9197   8.5870  10.0934  10.0940  12.4808  12.5963  12.6086  12.8025
    12.9071  12.9911  13.0320

     occupation numbers 
     1.0000   1.0000   1.0000   1.0000   1.0000   1.0000   1.0000   1.0000
     1.0000   1.0000   1.0000   1.0000   0.0000   0.0000   0.0000   0.0000
     0.0000   0.0000   0.0000

          k =-0.1667 0.5000-0.1667 (  3348 PWs)   bands (ev):

   -21.9167  -7.3743  -5.7323  -4.4893  -4.0028  -2.4575   7.6121   7.6339
     8.3530   8.5118  10.0452  10.0770  12.4495  12.5436  12.6042  12.7567
    12.8174  12.9951  13.0070

     occupation numbers 
     1.0000   1.0000   1.0000   1.0000   1.0000   1.0000   1.0000   1.0000
     1.0000   1.0000   1.0000   1.0000   0.0000   0.0000   0.0000   0.0000
     0.0000   0.0000   0.0000

          k =-0.2500 0.5833-0.2500 (  3330 PWs)   bands (ev):

   -21.8789  -7.5879  -6.1052  -4.5227  -3.7848  -2.2140   7.7562   7.8323
     8.3712   8.9995   9.9183  10.0642  12.4348  12.4499  12.6000  12.6125
    12.8237  12.9830  13.1067

     occupation numbers 
     1.0000   1.0000   1.0000   1.0000   1.0000   1.0000   1.0000   1.0000
     1.0000   1.0000   1.0000   1.0000   0.0000   0.0000   0.0000   0.0000
     0.0000   0.0000   0.0000

          k = 0.6667-0.3333 0.6667 (  3321 PWs)   bands (ev):

   -21.8551  -7.6883  -6.3645  -4.5254  -3.6363  -2.0927   7.8233   7.9549
     8.4776   9.3006   9.7248  10.1045  12.3478  12.4423  12.5333  12.5992
    12.8612  12.9662  13.1902

     occupation numbers 
     1.0000   1.0000   1.0000   1.0000   1.0000   1.0000   1.0000   1.0000
     1.0000   1.0000   1.0000   1.0000   0.0000   0.0000   0.0000   0.0000
     0.0000   0.0000   0.0000

          k = 0.5833-0.2500 0.5833 (  3331 PWs)   bands (ev):

   -21.8521  -7.6700  -6.4721  -4.4969  -3.5518  -2.1289   7.8465   7.9794
     8.5736   9.3275   9.5020  10.2109  12.3259  12.4670  12.5074  12.6019
    12.8922  12.9292  13.2025

     occupation numbers 
     1.0000   1.0000   1.0000   1.0000   1.0000   1.0000   1.0000   1.0000
     1.0000   1.0000   1.0000   1.0000   0.0000   0.0000   0.0000   0.0000
     0.0000   0.0000   0.0000

          k = 0.5000-0.1667 0.5000 (  3350 PWs)   bands (ev):

   -21.8706  -7.5478  -6.4044  -4.4441  -3.5308  -2.3223   7.7844   7.8726
     8.6919   9.0950   9.3377  10.3069  12.3821  12.5010  12.5482  12.6085
    12.8865  12.9013  13.1367

     occupation numbers 
     1.0000   1.0000   1.0000   1.0000   1.0000   1.0000   1.0000   1.0000
     1.0000   1.0000   1.0000   1.0000   0.0000   0.0000   0.0000   0.0000
     0.0000   0.0000   0.0000

          k = 0.4167-0.0833 0.4167 (  3353 PWs)   bands (ev):

   -21.9054  -7.3481  -6.1570  -4.3801  -3.6016  -2.6180   7.6303   7.6350
     8.6399   8.8819   9.3148  10.3227  12.4339  12.5335  12.6180  12.6982
    12.8700  12.8953  13.0461

     occupation numbers 
     1.0000   1.0000   1.0000   1.0000   1.0000   1.0000   1.0000   1.0000
     1.0000   1.0000   1.0000   1.0000   0.0000   0.0000   0.0000   0.0000
     0.0000   0.0000   0.0000

          k = 0.3333 0.0000 0.3333 (  3377 PWs)   bands (ev):

   -21.9467  -7.0951  -5.7640  -4.3218  -3.8173  -2.9158   7.3385   7.4181
     8.1206   9.1118   9.4217  10.2380  12.4812  12.5552  12.6193  12.8474
    12.8944  12.9097  13.0134

     occupation numbers 
     1.0000   1.0000   1.0000   1.0000   1.0000   1.0000   1.0000   1.0000
     1.0000   1.0000   1.0000   1.0000   0.0000   0.0000   0.0000   0.0000
     0.0000   0.0000   0.0000

          k = 0.0000 0.5000 0.0000 (  3359 PWs)   bands (ev):

   -21.9320  -7.3145  -5.2362  -4.5050  -4.5050  -2.4310   7.6378   7.6378
     8.1130   8.2190  10.1859  10.1859  12.4474  12.6050  12.6050  12.7214
    12.9612  12.9681  12.9681

     occupation numbers 
     1.0000   1.0000   1.0000   1.0000   1.0000   1.0000   1.0000   1.0000
     1.0000   1.0000   1.0000   1.0000   0.0000   0.0000   0.0000   0.0000
     0.0000   0.0000   0.0000

          k =-0.0833 0.5833-0.0833 (  3345 PWs)   bands (ev):

   -21.8977  -7.5482  -5.5708  -4.5671  -4.3172  -2.1426   7.7252   7.9081
     7.9778   8.6782  10.1692  10.1907  12.4177  12.5616  12.5880  12.6938
    12.8659  12.9261  13.0452

     occupation numbers 
     1.0000   1.0000   1.0000   1.0000   1.0000   1.0000   1.0000   1.0000
     1.0000   1.0000   1.0000   1.0000   0.0000   0.0000   0.0000   0.0000
     0.0000   0.0000   0.0000

          k =-0.1667 0.6667-0.1667 (  3355 PWs)   bands (ev):

   -21.8640  -7.6910  -6.0706  -4.6038  -3.9265  -1.9948   7.5691   8.1492
     8.2644   9.1292  10.0257  10.1567  12.4065  12.4787  12.5727  12.6758
    12.7557  12.9106  13.1565

     occupation numbers 
     1.0000   1.0000   1.0000   1.0000   1.0000   1.0000   1.0000   1.0000
     1.0000   1.0000   1.0000   1.0000   0.0000   0.0000   0.0000   0.0000
     0.0000   0.0000   0.0000

          k = 0.7500-0.2500 0.7500 (  3323 PWs)   bands (ev):

   -21.8401  -7.7062  -6.5222  -4.6066  -3.5393  -2.0083   7.5917   8.3230
     8.4460   9.4393   9.7666  10.1617  12.3899  12.4218  12.5693  12.6009
    12.7461  12.8939  13.2589

     occupation numbers 
     1.0000   1.0000   1.0000   1.0000   1.0000   1.0000   1.0000   1.0000
     1.0000   1.0000   1.0000   1.0000   0.0000   0.0000   0.0000   0.0000
     0.0000   0.0000   0.0000

          k = 0.6667-0.1667 0.6667 (  3328 PWs)   bands (ev):

   -21.8328  -7.5909  -6.8532  -4.5748  -3.2115  -2.1837   7.7598   8.3985
     8.4441   9.4485   9.5235  10.2716  12.3456  12.4553  12.5622  12.5777
    12.7507  12.8620  13.2934

     occupation numbers 
     1.0000   1.0000   1.0000   1.0000   1.0000   1.0000   1.0000   1.0000
     1.0000   1.0000   1.0000   1.0000   0.0000   0.0000   0.0000   0.0000
     0.0000   0.0000   0.0000

          k = 0.5833-0.0833 0.5833 (  3328 PWs)   bands (ev):

   -21.8441  -7.4279  -6.9565  -4.5160  -2.9846  -2.4879   7.9220   8.3003
     8.4074   9.2149   9.3745  10.4070  12.3597  12.4920  12.5924  12.5961
    12.7413  12.8275  13.2384

     occupation numbers 
     1.0000   1.0000   1.0000   1.0000   1.0000   1.0000   1.0000   1.0000
     1.0000   1.0000   1.0000   1.0000   0.0000   0.0000   0.0000   0.0000
     0.0000   0.0000   0.0000

          k = 0.5000 0.0000 0.5000 (  3362 PWs)   bands (ev):

   -21.8707  -7.3901  -6.6672  -4.4449  -3.1062  -2.6539   7.8486   7.9918
     8.5849   9.0488   9.1936  10.4407  12.3922  12.5188  12.6165  12.7073
    12.7337  12.8213  13.1360

     occupation numbers 
     1.0000   1.0000   1.0000   1.0000   1.0000   1.0000   1.0000   1.0000
     1.0000   1.0000   1.0000   1.0000   0.0000   0.0000   0.0000   0.0000
     0.0000   0.0000   0.0000

          k = 0.0000 0.6667 0.0000 (  3347 PWs)   bands (ev):

   -21.8713  -7.7585  -5.4088  -4.6361  -4.6361  -1.8149   7.3638   8.2174
     8.2174   9.0231  10.1909  10.1909  12.3869  12.5461  12.5461  12.6295
    12.8887  12.8887  13.1289

     occupation numbers 
     1.0000   1.0000   1.0000   1.0000   1.0000   1.0000   1.0000   1.0000
     1.0000   1.0000   1.0000   1.0000   0.0000   0.0000   0.0000   0.0000
     0.0000   0.0000   0.0000

          k =-0.0833 0.7500-0.0833 (  3354 PWs)   bands (ev):

   -21.8447  -7.8904  -5.7668  -4.6789  -4.3844  -1.6378   7.1365   8.5042
     8.5287   9.3803  10.0660  10.1179  12.3737  12.4831  12.5093  12.6100
    12.8432  12.8806  13.2472

     occupation numbers 
     1.0000   1.0000   1.0000   1.0000   1.0000   1.0000   1.0000   1.0000
     1.0000   1.0000   1.0000   1.0000   0.0000   0.0000   0.0000   0.0000
     0.0000   0.0000   0.0000

          k = 0.8333-0.1667 0.8333 (  3334 PWs)   bands (ev):

   -21.8250  -7.8911  -6.2939  -4.6855  -3.9060  -1.6612   7.1291   8.7302
     8.7460   9.6262   9.7851  10.0647  12.3958  12.4148  12.4964  12.5912
    12.7784  12.8705  13.3562

     occupation numbers 
     1.0000   1.0000   1.0000   1.0000   1.0000   1.0000   1.0000   1.0000
     1.0000   1.0000   1.0000   1.0000   0.0000   0.0000   0.0000   0.0000
     0.0000   0.0000   0.0000

          k = 0.7500-0.0833 0.7500 (  3325 PWs)   bands (ev):

   -21.8176  -7.7404  -6.7704  -4.6543  -3.4241  -1.8848   7.3315   8.7122
     8.8726   9.3944   9.7083  10.1543  12.3696  12.4414  12.5085  12.5773
    12.7241  12.8458  13.3952

     occupation numbers 
     1.0000   1.0000   1.0000   1.0000   1.0000   1.0000   1.0000   1.0000
     1.0000   1.0000   1.0000   1.0000   0.0000   0.0000   0.0000   0.0000
     0.0000   0.0000   0.0000

          k = 0.6667-0.0000 0.6667 (  3318 PWs)   bands (ev):

   -21.8247  -7.4476  -7.1321  -4.5928  -3.0162  -2.2646   7.6702   8.5060
     8.7515   9.1488   9.6075  10.3282  12.3564  12.4752  12.5516  12.5973
    12.6807  12.8206  13.3427

     occupation numbers 
     1.0000   1.0000   1.0000   1.0000   1.0000   1.0000   1.0000   1.0000
     1.0000   1.0000   1.0000   1.0000   0.0000   0.0000   0.0000   0.0000
     0.0000   0.0000   0.0000

          k = 0.0000 0.8333 0.0000 (  3326 PWs)   bands (ev):

   -21.8263  -8.0399  -5.5291  -4.7289  -4.7289  -1.3929   6.8499   8.8321
     8.8321   9.6463   9.9857   9.9857  12.3464  12.4556  12.4556  12.5820
    12.8820  12.8820  13.3632

     occupation numbers 
     1.0000   1.0000   1.0000   1.0000   1.0000   1.0000   1.0000   1.0000
     1.0000   1.0000   1.0000   1.0000   0.0000   0.0000   0.0000   0.0000
     0.0000   0.0000   0.0000

          k = 0.9167-0.0833 0.9167 (  3325 PWs)   bands (ev):

   -21.8138  -8.0690  -5.8725  -4.7419  -4.4269  -1.3559   6.7891   9.0654
     9.0849   9.7540   9.7870   9.8786  12.3576  12.4189  12.4339  12.5710
    12.8555  12.8804  13.4540

     occupation numbers 
     1.0000   1.0000   1.0000   1.0000   1.0000   1.0000   1.0000   1.0000
     1.0000   1.0000   1.0000   1.0000   0.0000   0.0000   0.0000   0.0000
     0.0000   0.0000   0.0000

          k = 0.8333 0.0000 0.8333 (  3334 PWs)   bands (ev):

   -21.8106  -7.9593  -6.3717  -4.7149  -3.9040  -1.5389   6.9647   9.0006
     9.2099   9.4226   9.8099   9.9547  12.3903  12.4181  12.4345  12.5662
    12.7898  12.8635  13.4648

     occupation numbers 
     1.0000   1.0000   1.0000   1.0000   1.0000   1.0000   1.0000   1.0000
     1.0000   1.0000   1.0000   1.0000   0.0000   0.0000   0.0000   0.0000
     0.0000   0.0000   0.0000

          k = 0.0000-1.0000 0.0000 (  3306 PWs)   bands (ev):

   -21.8096  -8.1362  -5.5720  -4.7622  -4.7622  -1.2414   6.6669   9.2492
     9.2492   9.7111   9.7111   9.8795  12.3323  12.4176  12.4176  12.5674
    12.8883  12.8883  13.4975

     occupation numbers 
     1.0000   1.0000   1.0000   1.0000   1.0000   1.0000   1.0000   1.0000
     1.0000   1.0000   1.0000   1.0000   0.0000   0.0000   0.0000   0.0000
     0.0000   0.0000   0.0000

          k =-0.1667 0.3333 0.0000 (  3340 PWs)   bands (ev):

   -21.9796  -6.8524  -5.3217  -4.3314  -4.1416  -3.1034   7.1724   7.2318
     7.6748   9.0273   9.8488  10.1135  12.5118  12.5838  12.6112  12.8792
    12.8835  13.0184  13.0676

     occupation numbers 
     1.0000   1.0000   1.0000   1.0000   1.0000   1.0000   1.0000   1.0000
[...]
     1.0000   1.0000   1.0000   1.0000   1.0000   1.0000   1.0000   1.0000
     1.0000   1.0000   1.0000   1.0000   0.0000   0.0000   0.0000   0.0000
     0.0000   0.0000   0.0000

          k =-0.2500 0.5833-0.0833 (  3348 PWs)   bands (ev):

   -21.8863  -7.5267  -6.0598  -4.5330  -3.8036  -2.2709   7.7736   7.9129
     8.1590   8.8498   9.8664  10.2722  12.4181  12.5213  12.5923  12.7517
    12.7535  12.9035  13.0831

     occupation numbers 
     1.0000   1.0000   1.0000   1.0000   1.0000   1.0000   1.0000   1.0000
     1.0000   1.0000   1.0000   1.0000   0.0000   0.0000   0.0000   0.0000
     0.0000   0.0000   0.0000

          k = 0.6667-0.3333 0.8333 (  3343 PWs)   bands (ev):

   -21.8555  -7.6249  -6.4530  -4.5715  -3.4975  -2.1735   7.8050   8.0961
     8.3078   9.2500   9.7207  10.2351  12.3919  12.4558  12.5779  12.6246
    12.7740  12.8975  13.1892

     occupation numbers 
     1.0000   1.0000   1.0000   1.0000   1.0000   1.0000   1.0000   1.0000
     1.0000   1.0000   1.0000   1.0000   0.0000   0.0000   0.0000   0.0000
     0.0000   0.0000   0.0000

          k = 0.5833-0.2500 0.7500 (  3332 PWs)   bands (ev):

   -21.8399  -7.6235  -6.7120  -4.5773  -3.2801  -2.1889   7.8913   8.1545
     8.4088   9.4245   9.5964  10.2215  12.3425  12.4511  12.5472  12.5934
    12.7998  12.8793  13.2559

     occupation numbers 
     1.0000   1.0000   1.0000   1.0000   1.0000   1.0000   1.0000   1.0000
     1.0000   1.0000   1.0000   1.0000   0.0000   0.0000   0.0000   0.0000
     0.0000   0.0000   0.0000

          k = 0.5000-0.1667 0.6667 (  3336 PWs)   bands (ev):

   -21.8440  -7.5606  -6.7649  -4.5485  -3.1917  -2.3015   7.9617   8.1380
     8.3860   9.3613   9.4629  10.3065  12.3489  12.4708  12.5495  12.6001
    12.8099  12.8515  13.2370

     occupation numbers 
     1.0000   1.0000   1.0000   1.0000   1.0000   1.0000   1.0000   1.0000
     1.0000   1.0000   1.0000   1.0000   0.0000   0.0000   0.0000   0.0000
     0.0000   0.0000   0.0000

          k = 0.4167-0.0833 0.5833 (  3345 PWs)   bands (ev):

   -21.8667  -7.4808  -6.5683  -4.4933  -3.2843  -2.4509   7.8748   8.0255
     8.3811   9.1036   9.4223  10.3810  12.3908  12.5059  12.5937  12.6529
    12.7985  12.8338  13.1485

     occupation numbers 
     1.0000   1.0000   1.0000   1.0000   1.0000   1.0000   1.0000   1.0000
     1.0000   1.0000   1.0000   1.0000   0.0000   0.0000   0.0000   0.0000
     0.0000   0.0000   0.0000

          k = 0.3333 0.0000 0.5000 (  3357 PWs)   bands (ev):

   -21.9014  -7.3652  -6.1763  -4.4292  -3.5732  -2.5839   7.7004   7.7230
     8.5261   8.6701   9.5477  10.3504  12.4285  12.5374  12.6145  12.7708
    12.8326  12.8378  13.0507

     occupation numbers 
     1.0000   1.0000   1.0000   1.0000   1.0000   1.0000   1.0000   1.0000
     1.0000   1.0000   1.0000   1.0000   0.0000   0.0000   0.0000   0.0000
     0.0000   0.0000   0.0000

          k =-0.1667 0.6667-0.0000 (  3348 PWs)   bands (ev):

   -21.8671  -7.7159  -5.8687  -4.6241  -4.1430  -1.9228   7.4738   8.2144
     8.2227   9.0761  10.0342  10.2363  12.3948  12.5247  12.5479  12.6634
    12.8389  12.8625  13.1448

     occupation numbers 
     1.0000   1.0000   1.0000   1.0000   1.0000   1.0000   1.0000   1.0000
     1.0000   1.0000   1.0000   1.0000   0.0000   0.0000   0.0000   0.0000
     0.0000   0.0000   0.0000

          k = 0.7500-0.2500 0.9167 (  3341 PWs)   bands (ev):

   -21.8404  -7.7716  -6.3291  -4.6649  -3.7420  -1.8759   7.3864   8.4061
     8.5353   9.4171   9.8274  10.1872  12.3890  12.4625  12.5263  12.6394
    12.7638  12.8520  13.2621

     occupation numbers 
     1.0000   1.0000   1.0000   1.0000   1.0000   1.0000   1.0000   1.0000
     1.0000   1.0000   1.0000   1.0000   0.0000   0.0000   0.0000   0.0000
     0.0000   0.0000   0.0000

          k = 0.6667-0.1667 0.8333 (  3331 PWs)   bands (ev):

   -21.8248  -7.6888  -6.7656  -4.6676  -3.3154  -2.0111   7.4941   8.4552
     8.7254   9.5498   9.6406  10.1565  12.3701  12.4401  12.5269  12.6076
    12.7292  12.8363  13.3441

     occupation numbers 
     1.0000   1.0000   1.0000   1.0000   1.0000   1.0000   1.0000   1.0000
     1.0000   1.0000   1.0000   1.0000   0.0000   0.0000   0.0000   0.0000
     0.0000   0.0000   0.0000

          k = 0.5833-0.0833 0.7500 (  3323 PWs)   bands (ev):

   -21.8247  -7.4693  -7.1009  -4.6311  -2.9382  -2.3141   7.7433   8.3357
     8.7211   9.3212   9.6096  10.2707  12.3538  12.4672  12.5346  12.6150
    12.7095  12.8078  13.3404

     occupation numbers 
     1.0000   1.0000   1.0000   1.0000   1.0000   1.0000   1.0000   1.0000
     1.0000   1.0000   1.0000   1.0000   0.0000   0.0000   0.0000   0.0000
     0.0000   0.0000   0.0000

          k = 0.5000 0.0000 0.6667 (  3316 PWs)   bands (ev):

   -21.8401  -7.3876  -7.0412  -4.5661  -2.7714  -2.6271   7.9903   8.1890
     8.4412   9.2816   9.4118  10.3936  12.3657  12.4951  12.5616  12.6810
    12.6866  12.7883  13.2572

     occupation numbers 
     1.0000   1.0000   1.0000   1.0000   1.0000   1.0000   1.0000   1.0000
     1.0000   1.0000   1.0000   1.0000   0.0000   0.0000   0.0000   0.0000
     0.0000   0.0000   0.0000

          k = 0.8333-0.1667 1.0000 (  3340 PWs)   bands (ev):

   -21.8251  -7.9626  -6.0322  -4.7299  -4.1714  -1.5364   6.9932   8.7440
     8.8463   9.6316   9.8666  10.0291  12.3722  12.4522  12.4605  12.5893
    12.8339  12.8597  13.3624

     occupation numbers 
     1.0000   1.0000   1.0000   1.0000   1.0000   1.0000   1.0000   1.0000
     1.0000   1.0000   1.0000   1.0000   0.0000   0.0000   0.0000   0.0000
     0.0000   0.0000   0.0000

          k = 0.7500-0.0833 0.9167 (  3334 PWs)   bands (ev):

   -21.8136  -7.8988  -6.4723  -4.7409  -3.7226  -1.6480   7.0750   8.7999
     9.1007   9.5900   9.7588   9.9585  12.3860  12.4265  12.4569  12.5790
    12.7798  12.8436  13.4346

     occupation numbers 
     1.0000   1.0000   1.0000   1.0000   1.0000   1.0000   1.0000   1.0000
     1.0000   1.0000   1.0000   1.0000   0.0000   0.0000   0.0000   0.0000
     0.0000   0.0000   0.0000

          k = 0.6667 0.0000 0.8333 (  3333 PWs)   bands (ev):

   -21.8135  -7.6984  -6.8860  -4.7029  -3.2578  -1.9482   7.3544   8.6148
     9.1758   9.2482   9.7510  10.0919  12.3665  12.4539  12.4853  12.5922
    12.7216  12.8194  13.4223

     occupation numbers 
     1.0000   1.0000   1.0000   1.0000   1.0000   1.0000   1.0000   1.0000
     1.0000   1.0000   1.0000   1.0000   0.0000   0.0000   0.0000   0.0000
     0.0000   0.0000   0.0000

          k =-0.1667-1.0000-0.0000 (  3340 PWs)   bands (ev):

   -21.8096  -8.0472  -6.0890  -4.7681  -4.1838  -1.3970   6.8191   9.0776
     9.2664   9.6593   9.7228   9.8714  12.3791  12.4042  12.4248  12.5670
    12.8395  12.8662  13.4837

     occupation numbers 
     1.0000   1.0000   1.0000   1.0000   1.0000   1.0000   1.0000   1.0000
     1.0000   1.0000   1.0000   1.0000   0.0000   0.0000   0.0000   0.0000
     0.0000   0.0000   0.0000

          k = 0.6667-0.3333 1.0000 (  3360 PWs)   bands (ev):

   -21.8556  -7.5899  -6.4998  -4.5932  -3.4242  -2.2200   7.7733   8.1754
     8.2755   9.2184   9.6539  10.3333  12.3898  12.5055  12.5536  12.7226
    12.7480  12.7900  13.1890

     occupation numbers 
     1.0000   1.0000   1.0000   1.0000   1.0000   1.0000   1.0000   1.0000
     1.0000   1.0000   1.0000   1.0000   0.0000   0.0000   0.0000   0.0000
     0.0000   0.0000   0.0000

          k = 0.5833-0.2500 0.9167 (  3330 PWs)   bands (ev):

   -21.8330  -7.5519  -6.8861  -4.6472  -3.0442  -2.2912   7.8104   8.1754
     8.5922   9.4653   9.5351  10.2678  12.3669  12.4720  12.5323  12.6510
    12.7468  12.7798  13.2931

     occupation numbers 
     1.0000   1.0000   1.0000   1.0000   1.0000   1.0000   1.0000   1.0000
     1.0000   1.0000   1.0000   1.0000   0.0000   0.0000   0.0000   0.0000
     0.0000   0.0000   0.0000

          k = 0.5000-0.1667 0.8333 (  3322 PWs)   bands (ev):

   -21.8247  -7.4879  -7.0726  -4.6679  -2.8482  -2.3774   7.8732   8.1255
     8.7198   9.4397   9.6337  10.1996  12.3512  12.4589  12.5283  12.6215
    12.7569  12.7773  13.3381

     occupation numbers 
     1.0000   1.0000   1.0000   1.0000   1.0000   1.0000   1.0000   1.0000
     1.0000   1.0000   1.0000   1.0000   0.0000   0.0000   0.0000   0.0000
     0.0000   0.0000   0.0000

          k = 0.6667-0.1667 1.0000 (  3326 PWs)   bands (ev):

   -21.8218  -7.7339  -6.7044  -4.7284  -3.3502  -1.9441   7.3822   8.4662
     8.8949   9.6072   9.6311  10.1041  12.3754  12.4727  12.4740  12.6291
    12.7540  12.7938  13.3655

     occupation numbers 
     1.0000   1.0000   1.0000   1.0000   1.0000   1.0000   1.0000   1.0000
     1.0000   1.0000   1.0000   1.0000   0.0000   0.0000   0.0000   0.0000
     0.0000   0.0000   0.0000

          k = 0.5833-0.0833 0.9167 (  3328 PWs)   bands (ev):

   -21.8135  -7.5674  -7.0701  -4.7498  -2.9225  -2.1893   7.5403   8.3392
     9.1351   9.4449   9.7364  10.0104  12.3622  12.4578  12.4835  12.6422
    12.7222  12.7670  13.4153

     occupation numbers 
     1.0000   1.0000   1.0000   1.0000   1.0000   1.0000   1.0000   1.0000
     1.0000   1.0000   1.0000   1.0000   0.0000   0.0000   0.0000   0.0000
     0.0000   0.0000   0.0000

          k = 0.5000 0.0000 0.8333 (  3324 PWs)   bands (ev):

   -21.8176  -7.3657  -7.2738  -4.7180  -2.5766  -2.5513   7.7476   8.1799
     8.9975   9.3820   9.6772  10.1386  12.3586  12.4736  12.4900  12.6860
    12.6926  12.7484  13.3842

     occupation numbers 
     1.0000   1.0000   1.0000   1.0000   1.0000   1.0000   1.0000   1.0000
     1.0000   1.0000   1.0000   1.0000   0.0000   0.0000   0.0000   0.0000
     0.0000   0.0000   0.0000

          k =-0.3333-1.0000 0.0000 (  3332 PWs)   bands (ev):

   -21.8094  -7.7830  -6.7742  -4.7798  -3.3286  -1.8413   7.2289   8.6254
     9.3204   9.5395   9.7519   9.8497  12.3750  12.4438  12.4578  12.5947
    12.7592  12.8004  13.4563

     occupation numbers 
     1.0000   1.0000   1.0000   1.0000   1.0000   1.0000   1.0000   1.0000
     1.0000   1.0000   1.0000   1.0000   0.0000   0.0000   0.0000   0.0000
     0.0000   0.0000   0.0000

          k =-0.5000-1.0000 0.0000 (  3316 PWs)   bands (ev):

   -21.8093  -7.3527  -7.3527  -4.7856  -2.5135  -2.5135   7.6116   8.2199
     9.4142   9.4142   9.7739   9.8314  12.3595  12.4651  12.4651  12.6974
    12.6974  12.7264  13.4427

     occupation numbers 
     1.0000   1.0000   1.0000   1.0000   1.0000   1.0000   1.0000   1.0000
     1.0000   1.0000   1.0000   1.0000   0.0000   0.0000   0.0000   0.0000
     0.0000   0.0000   0.0000

     highest occupied, lowest unoccupied level (ev):    10.4407   12.2937

!    total energy              =    -565.84246918 Ry
     total all-electron energy =      -783.536254 Ry
     estimated scf accuracy    <          5.5E-15 Ry

     The total energy is the sum of the following terms:
     one-electron contribution =     -12.50099124 Ry
     hartree contribution      =      24.88889083 Ry
     xc contribution           =     -28.73438772 Ry
     ewald contribution        =    -125.71618019 Ry
     one-center paw contrib.   =    -423.77980086 Ry
      -> PAW hartree energy AE =      42.77115456 Ry
      -> PAW hartree energy PS =     -42.59515415 Ry
      -> PAW xc energy AE      =    -416.80685204 Ry
      -> PAW xc energy PS      =      11.89238839 Ry
      -> total E_H with PAW    =      25.06489124 Ry
      -> total E_XC with PAW   =    -433.64885137 Ry

     convergence has been achieved in  34 iterations

     Forces acting on atoms (cartesian axes, Ry/au):

     atom    1 type  1   force =    -0.00000000   -0.00000000    0.00000000
     atom    2 type  2   force =     0.00000000    0.00000000   -0.00000000
     atom    3 type  2   force =     0.00000000   -0.00000000    0.00000000
     The non-local contrib.  to forces
     atom    1 type  1   force =     0.00000000    0.00000000    0.00000000
     atom    2 type  2   force =    -0.00000000    0.00000000   -0.00000000
     atom    3 type  2   force =     0.00000000    0.00000000    0.00000000
     The ionic contribution  to forces
     atom    1 type  1   force =     0.00000000   -0.00000000   -0.00000000
     atom    2 type  2   force =    -0.00000000   -0.00000000   -0.00000000
     atom    3 type  2   force =     0.00000000   -0.00000000    0.00000000
     The local contribution  to forces
     atom    1 type  1   force =    -0.00000000    0.00000000    0.00000000
     atom    2 type  2   force =     0.00000000    0.00000000    0.00000000
     atom    3 type  2   force =    -0.00000000    0.00000000    0.00000000
     The core correction contribution to forces
     atom    1 type  1   force =    -0.00000000   -0.00000000    0.00000000
     atom    2 type  2   force =    -0.00000000   -0.00000000   -0.00000000
     atom    3 type  2   force =     0.00000000    0.00000000   -0.00000000
     The Hubbard contrib.    to forces
     atom    1 type  1   force =     0.00000000    0.00000000    0.00000000
     atom    2 type  2   force =     0.00000000    0.00000000    0.00000000
     atom    3 type  2   force =     0.00000000    0.00000000    0.00000000
     The SCF correction term to forces
     atom    1 type  1   force =    -0.00000000    0.00000000   -0.00000000
     atom    2 type  2   force =    -0.00000000    0.00000000    0.00000000
     atom    3 type  2   force =     0.00000000   -0.00000000   -0.00000000

     Total force =     0.000000     Total SCF correction =     0.000000


     Computing stress (Cartesian axis) and pressure

          total   stress  (Ry/bohr**3)                   (kbar)     P=        0.00
   0.00000001   0.00000000   0.00000000            0.00        0.00        0.00
   0.00000000   0.00000001  -0.00000000            0.00        0.00       -0.00
   0.00000000  -0.00000000   0.00000001            0.00       -0.00        0.00

     kinetic stress (kbar)  19779.71     -0.00     -0.00
                               -0.00  19779.71      0.00
                               -0.00      0.00  19779.71

     local   stress (kbar)  -7022.50      0.00      0.00
                                0.00  -7022.50      0.00
                                0.00      0.00  -7022.50

     nonloc. stress (kbar)   9750.43      0.00     -0.00
                                0.00   9750.43      0.00
                               -0.00      0.00   9750.43

     hartree stress (kbar)   4417.41     -0.00      0.00
                               -0.00   4417.41     -0.00
                                0.00     -0.00   4417.41

     exc-cor stress (kbar)  -2285.80     -0.00     -0.00
                               -0.00  -2285.80      0.00
                               -0.00      0.00  -2285.80

     corecor stress (kbar)  -2326.50      0.00      0.00
                                0.00  -2326.50      0.00
                                0.00      0.00  -2326.50

     ewald   stress (kbar) -22312.75     -0.00      0.00
                               -0.00 -22312.75     -0.00
                                0.00     -0.00 -22312.75

     hubbard stress (kbar)      0.00      0.00      0.00
                                0.00      0.00      0.00
                                0.00      0.00      0.00

     DFT-D   stress (kbar)      0.00      0.00      0.00
                                0.00      0.00      0.00
                                0.00      0.00      0.00

     XDM     stress (kbar)      0.00      0.00      0.00
                                0.00      0.00      0.00
                                0.00      0.00      0.00

     dft-nl  stress (kbar)      0.00      0.00      0.00
                                0.00      0.00      0.00
                                0.00      0.00      0.00

     TS-vdW  stress (kbar)      0.00      0.00      0.00
                                0.00      0.00      0.00
                                0.00      0.00      0.00

     MDB     stress (kbar)      0.00      0.00      0.00
                                0.00      0.00      0.00
                                0.00      0.00      0.00

     3D-RISM stress (kbar)      0.00      0.00      0.00
                                0.00      0.00      0.00
                                0.00      0.00      0.00


     Writing all to output data dir ./CeO.save/
 
     init_run     :      0.84s CPU      0.95s WALL (       1 calls)
     electrons    :     19.63s CPU     20.27s WALL (       1 calls)
     forces       :      0.12s CPU      0.12s WALL (       1 calls)
     stress       :      0.33s CPU      0.33s WALL (       1 calls)

     Called by init_run:
     wfcinit      :      0.20s CPU      0.20s WALL (       1 calls)
     wfcinit:atom :      0.00s CPU      0.00s WALL (      18 calls)
     wfcinit:wfcr :      0.19s CPU      0.19s WALL (      18 calls)
     potinit      :      0.32s CPU      0.36s WALL (       1 calls)
     hinit0       :      0.14s CPU      0.18s WALL (       1 calls)

     Called by electrons:
     c_bands      :      8.81s CPU      9.01s WALL (      34 calls)
     sum_band     :      3.08s CPU      3.15s WALL (      34 calls)
     v_of_rho     :      0.83s CPU      0.84s WALL (      35 calls)
     v_h          :      0.06s CPU      0.07s WALL (      35 calls)
     v_xc         :      0.81s CPU      0.82s WALL (      37 calls)
     newd         :      1.08s CPU      1.12s WALL (      35 calls)
     PAW_pot      :      5.79s CPU      5.85s WALL (      35 calls)
     mix_rho      :      0.07s CPU      0.07s WALL (      34 calls)

     Called by c_bands:
     init_us_2    :      0.20s CPU      0.21s WALL (    1278 calls)
     init_us_2:cp :      0.20s CPU      0.20s WALL (    1278 calls)
     cegterg      :      7.37s CPU      7.52s WALL (     612 calls)

     Called by sum_band:
     sum_band:wei :      0.00s CPU      0.00s WALL (      34 calls)
     sum_band:loo :      1.70s CPU      1.74s WALL (      34 calls)
     sum_band:buf :      0.02s CPU      0.02s WALL (     612 calls)
     sum_band:ini :      0.09s CPU      0.09s WALL (     612 calls)
     sum_band:cal :      0.09s CPU      0.09s WALL (     612 calls)
     sum_band:bec :      0.01s CPU      0.01s WALL (     612 calls)
     addusdens    :      1.09s CPU      1.12s WALL (      34 calls)
                                        0.00s GPU  (      34 calls)
     addusd:skk   :      0.00s CPU      0.00s WALL (      68 calls)
                                        0.00s GPU  (      68 calls)

     Called by *egterg:
     cdiaghg      :      0.68s CPU      0.69s WALL (    1682 calls)
     cegterg:over :      0.20s CPU      0.20s WALL (    1070 calls)
     cegterg:upda :      0.06s CPU      0.06s WALL (    1070 calls)
     cegterg:last :      0.10s CPU      0.11s WALL (     898 calls)
     h_psi        :      6.23s CPU      6.36s WALL (    1700 calls)
     s_psi        :      0.09s CPU      0.09s WALL (    1700 calls)
     g_psi        :      0.02s CPU      0.02s WALL (    1070 calls)

     Called by h_psi:
     h_psi:calbec :      0.25s CPU      0.26s WALL (    1700 calls)
     vloc_psi     :      5.83s CPU      5.95s WALL (    1700 calls)
     add_vuspsi   :      0.11s CPU      0.11s WALL (    1700 calls)

     General routines
     calbec       :      0.35s CPU      0.36s WALL (    2402 calls)
     fft          :      0.33s CPU      0.37s WALL (     478 calls)
     ffts         :      0.03s CPU      0.03s WALL (      69 calls)
     fftw         :      5.58s CPU      5.70s WALL (   65144 calls)
     interpolate  :      0.05s CPU      0.05s WALL (      35 calls)
 
     Parallel routines

     PAW routines
     PAW_pot      :      5.79s CPU      5.85s WALL (      35 calls)
     PAW_symme    :      0.14s CPU      0.14s WALL (      69 calls)
 
     PWSCF        :     21.18s CPU     24.49s WALL

 
   This run was terminated on:  18:31:59  19Oct2023            

=------------------------------------------------------------------------------=
   JOB DONE.
=------------------------------------------------------------------------------=
