 written on 10Apr2026 at 12:00:00
           1
           7
    1    1    1    1    3    1    1
   -1   -1    0    1    1   -0.066258    0.000000
    0   -1    0    1    1   -2.705800    0.000000
    1   -1    0    1    1   -0.066258    0.000000
    0    0    0    1    1   -0.281400    0.000000
    1    0    0    1    1   -2.705800    0.000000
    0    1    0    1    1   -2.705800    0.000000
   -1    0    0    1    1   -0.066258    0.000000
